version 3
run General-0-20250602-09:10:17-4372
attr configname General
attr datetime 20250602-09:10:17
attr datetimef 20250602-091017
attr experiment General
attr inifile omnetpp.ini
attr iterationvars ""
attr iterationvarsd ""
attr iterationvarsf ""
attr measurement ""
attr network Network
attr processid 4372
attr repetition 0
attr replication #0
attr resultdir results
attr runnumber 0
attr seedset 0
config network Network
config sim-time-limit 200s
config Network.node[0].app.interArrivalTime exponential(7)
config Network.node[0].app.packetByteSize 125000
config Network.node[0].app.destination 5
config Network.node[1].app.interArrivalTime exponential(7)
config Network.node[1].app.packetByteSize 125000
config Network.node[1].app.destination 5
config Network.node[2].app.interArrivalTime exponential(7)
config Network.node[2].app.packetByteSize 125000
config Network.node[2].app.destination 5
config Network.node[3].app.interArrivalTime exponential(7)
config Network.node[3].app.packetByteSize 125000
config Network.node[3].app.destination 5
config Network.node[4].app.interArrivalTime exponential(7)
config Network.node[4].app.packetByteSize 125000
config Network.node[4].app.destination 5
config Network.node[6].app.interArrivalTime exponential(7)
config Network.node[6].app.packetByteSize 125000
config Network.node[6].app.destination 5
config Network.node[7].app.interArrivalTime exponential(7)
config Network.node[7].app.packetByteSize 125000
config Network.node[7].app.destination 5

vector 0 Network.node[7].app SendedPackets ETV
vector 1 Network.node[7].lnk[0] "Buffer Size" ETV
vector 2 Network.node[6].app SendedPackets ETV
vector 3 Network.node[6].lnk[1] "Buffer Size" ETV
vector 4 Network.node[6].net ResendedPackets ETV
vector 5 Network.node[6].lnk[0] "Buffer Size" ETV
vector 6 Network.node[7].net ResendedPackets ETV
vector 7 Network.node[7].lnk[1] "Buffer Size" ETV
vector 8 Network.node[5].net Feedbacks ETV
vector 9 Network.node[5].app Delay ETV
vector 10 Network.node[5].app Hops ETV
vector 11 Network.node[5].app ReceivedPackets ETV
vector 12 Network.node[5].lnk[1] "Buffer Size" ETV
vector 13 Network.node[0].net ResendedPackets ETV
vector 14 Network.node[0].lnk[1] "Buffer Size" ETV
vector 15 Network.node[0].app SendedPackets ETV
vector 16 Network.node[1].net ResendedPackets ETV
vector 17 Network.node[1].lnk[1] "Buffer Size" ETV
vector 18 Network.node[4].app SendedPackets ETV
vector 19 Network.node[4].lnk[1] "Buffer Size" ETV
vector 20 Network.node[2].net ResendedPackets ETV
vector 21 Network.node[2].lnk[1] "Buffer Size" ETV
vector 22 Network.node[3].net ResendedPackets ETV
vector 23 Network.node[3].lnk[1] "Buffer Size" ETV
vector 24 Network.node[4].net ResendedPackets ETV
vector 25 Network.node[1].app SendedPackets ETV
vector 26 Network.node[0].lnk[0] "Buffer Size" ETV
vector 27 Network.node[3].app SendedPackets ETV
vector 28 Network.node[2].app SendedPackets ETV
vector 29 Network.node[2].lnk[0] "Buffer Size" ETV
vector 30 Network.node[1].lnk[0] "Buffer Size" ETV
vector 31 Network.node[4].lnk[0] "Buffer Size" ETV
vector 32 Network.node[3].lnk[0] "Buffer Size" ETV
0	1	2.472113973963	1
0	429	18.036784928217	1
0	1040	36.22456352916	1
0	1294	47.522578053408	1
0	1574	53.628826418703	1
0	1767	58.793617460994	1
0	1983	63.057194423276	1
0	2414	69.786860996736	1
0	2782	77.802833679636	1
0	3103	85.495220952493	1
0	3191	87.148667895072	1
0	3260	89.801401645051	1
0	3387	92.55318954618	1
0	5123	123.734667469412	1
0	5578	136.473399904403	1
0	5676	141.461485057736	1
0	6010	150.871201962802	1
0	6431	159.039316648642	1
0	6590	164.891999372434	1
0	6779	169.870734932954	1
0	7033	175.876004420474	1
0	7058	176.865319415399	1
0	7247	184.157783994655	1
0	7329	186.310408060992	1
0	7615	191.943989859602	1
0	7807	194.147041485584	1
0	7961	196.529468653231	1
0	8052	198.531615460787	1
1	3	2.472113973963	1
1	4	2.472113973963	0
1	272	14.064640143037	1
1	273	14.064640143037	0
1	431	18.036784928217	1
1	432	18.036784928217	0
1	523	22.537147321493	1
1	524	22.537147321493	0
1	577	23.537147321493	1
1	578	23.537147321493	0
1	771	26.207032542754	1
1	772	26.207032542754	0
1	786	27.207032542754	1
1	787	27.207032542754	0
1	877	30.202875805204	1
1	878	30.202875805204	0
1	927	31.991943786152	1
1	928	31.991943786152	0
1	1042	36.22456352916	1
1	1043	36.22456352916	0
1	1086	38.446404427518	1
1	1087	38.446404427518	0
1	1139	40.743365615666	1
1	1140	40.743365615666	0
1	1205	42.938368636265	1
1	1206	42.938368636265	0
1	1284	46.820963482617	1
1	1285	46.820963482617	0
1	1311	47.820963482617	1
1	1312	47.820963482617	0
1	1362	48.820963482617	1
1	1363	48.820963482617	0
1	1677	56.134168626367	1
1	1678	56.134168626367	0
1	1701	57.134168626367	1
1	1702	57.134168626367	0
1	1728	58.134168626367	1
1	1729	58.134168626367	0
1	1769	58.793617460994	1
1	1782	59.134168626367	0
1	1784	59.134168626367	1
1	1839	60.134168626367	0
1	1862	60.351919844358	1
1	1889	61.134168626367	0
1	1911	61.351919844358	1
1	1937	62.134168626367	0
1	1985	63.057194423276	1
1	1989	63.05759889573	2
1	1990	63.134168626367	1
1	2063	64.05759889573	2
1	2064	64.134168626367	1
1	2125	65.134168626367	0
1	2177	65.952381129704	1
1	2178	66.134168626367	0
1	2283	67.291997604298	1
1	2284	67.291997604298	0
1	2351	68.291997604298	1
1	2352	68.291997604298	0
1	2459	71.132373999384	1
1	2460	71.132373999384	0
1	2582	73.475382675992	1
1	2583	73.475382675992	0
1	2611	74.475382675992	1
1	2612	74.475382675992	0
1	2635	75.475382675992	1
1	2636	75.475382675992	0
1	2703	76.475382675992	1
1	2704	76.475382675992	0
1	2748	77.475382675992	1
1	2749	77.475382675992	0
1	2784	77.802833679636	1
1	2787	78.475382675992	0
1	2789	78.475382675992	1
1	2845	79.475382675992	0
1	2887	79.505117638723	1
1	2893	80.475382675992	0
1	2920	80.505117638723	1
1	2950	81.475382675992	0
1	2992	81.505117638723	1
1	2993	82.475382675992	0
1	3068	83.689351133312	1
1	3069	83.689351133312	0
1	3105	85.495220952493	1
1	3106	85.495220952493	0
1	3193	87.148667895072	1
1	3194	87.148667895072	0
1	3336	91.089758757616	1
1	3337	91.089758757616	0
1	3361	92.089758757616	1
1	3362	92.089758757616	0
1	3389	92.55318954618	1
1	3420	93.089758757616	0
1	3552	94.553287124769	1
1	3553	94.553287124769	0
1	3706	97.374527807816	1
1	3707	97.374527807816	0
1	3798	99.014638439245	1
1	3799	99.014638439245	0
1	3834	100.014638439245	1
1	3835	100.014638439245	0
1	3848	101.014638439245	1
1	3849	101.014638439245	0
1	3881	102.014638439245	1
1	3882	102.014638439245	0
1	3929	103.014638439245	1
1	3930	103.014638439245	0
1	4096	105.173349043596	1
1	4097	105.173349043596	0
1	4120	107.027070045865	1
1	4121	107.027070045865	0
1	4315	111.276760018976	1
1	4316	111.276760018976	0
1	4363	112.580845862676	1
1	4364	112.580845862676	0
1	4416	113.580845862676	1
1	4417	113.580845862676	0
1	4440	114.580845862676	1
1	4441	114.580845862676	0
1	4505	115.580845862676	1
1	4506	115.580845862676	0
1	4591	116.580845862676	1
1	4592	116.580845862676	0
1	4649	117.580845862676	1
1	4650	117.580845862676	0
1	4692	118.580845862676	1
1	4693	118.580845862676	0
1	4747	119.580845862676	1
1	4748	119.580845862676	0
1	4906	121.14217031987	1
1	4907	121.14217031987	0
1	5011	122.14217031987	1
1	5012	122.14217031987	0
1	5078	123.14217031987	1
1	5079	123.14217031987	0
1	5125	123.734667469412	1
1	5140	124.14217031987	0
1	5225	125.894432199603	1
1	5226	125.894432199603	0
1	5378	130.578195953439	1
1	5379	130.578195953439	0
1	5392	131.578195953439	1
1	5393	131.578195953439	0
1	5450	133.198939840474	1
1	5451	133.198939840474	0
1	5494	134.198939840474	1
1	5495	134.198939840474	0
1	5580	136.473399904403	1
1	5581	136.473399904403	0
1	5585	136.499956430657	1
1	5590	137.473399904403	0
1	5674	140.926312605428	1
1	5675	140.926312605428	0
1	5856	147.425662083738	1
1	5857	147.425662083738	0
1	6012	150.871201962802	1
1	6013	150.871201962802	0
1	6140	153.107163753331	1
1	6141	153.107163753331	0
1	6164	154.107163753331	1
1	6165	154.107163753331	0
1	6263	156.300557987013	1
1	6264	156.300557987013	0
1	6433	159.039316648642	1
1	6434	159.039316648642	0
1	6459	159.774032175479	1
1	6460	160.039316648642	0
1	6583	164.100226700454	1
1	6584	164.100226700454	0
1	6592	164.891999372434	1
1	6593	165.100226700454	0
1	6643	166.244886093101	1
1	6644	166.244886093101	0
1	6728	168.403789973786	1
1	6729	168.403789973786	0
1	6801	170.203208811883	1
1	6802	170.203208811883	0
1	7004	175.177179805937	1
1	7005	175.177179805937	0
1	7035	175.876004420474	1
1	7038	176.177179805937	0
1	7040	176.177179805937	1
1	7060	176.865319415399	2
1	7064	177.177179805937	1
1	7095	177.862101304627	2
1	7096	178.177179805937	1
1	7117	178.862101304627	2
1	7118	179.177179805937	1
1	7161	180.177179805937	0
1	7249	184.157783994655	1
1	7250	184.157783994655	0
1	7347	186.942447028767	1
1	7348	186.942447028767	0
1	7489	189.610898711778	1
1	7490	189.610898711778	0
1	7522	190.610898711778	1
1	7523	190.610898711778	0
1	7580	191.610898711778	1
1	7581	191.610898711778	0
1	7660	192.610898711778	1
1	7661	192.610898711778	0
1	7731	193.610898711778	1
1	7732	193.610898711778	0
1	7809	194.147041485584	1
1	7812	194.610898711778	0
1	7814	194.610898711778	1
1	7877	195.610898711778	0
1	7963	196.529468653231	1
1	7964	196.610898711778	0
2	5	3.395897146052	1
2	14	3.804589829704	1
2	773	27.008975789202	1
2	800	28.067591764857	1
2	1156	42.34979157045	1
2	1290	47.494542518779	1
2	1611	54.644565639223	1
2	1758	58.393525680818	1
2	2325	67.740556973185	1
2	3209	87.885962122129	1
2	3519	94.438393040529	1
2	4631	116.789019534904	1
2	5595	137.699348777868	1
2	5607	138.100637262834	1
2	5715	142.300265469321	1
2	5718	142.441596366344	1
2	5734	142.721430459752	1
2	5849	146.801579181821	1
2	5963	149.919515415259	1
2	6175	154.509039405804	1
2	6887	172.0364218874	1
2	6978	174.313804796103	1
2	6982	174.379610050752	1
2	7207	182.085531421388	1
2	7844	194.974508721797	1
3	7	3.395897146052	1
3	8	3.395897146052	0
3	16	3.804589829704	1
3	17	4.395897146052	0
3	31	4.472413973963	1
3	32	5.395897146052	0
3	80	7.839244984754	1
3	81	7.839244984754	0
3	184	11.396697146052	1
3	185	11.396697146052	0
3	223	12.396697146052	1
3	224	12.396697146052	0
3	287	14.396697146052	1
3	288	14.396697146052	0
3	316	15.396697146052	1
3	317	15.396697146052	0
3	359	16.064940143037	1
3	360	16.064940143037	0
3	383	16.661217351191	1
3	384	16.661217351191	0
3	412	17.661217351191	1
3	413	17.661217351191	0
3	460	20.037084928217	1
3	461	20.037084928217	0
3	534	22.844859725624	1
3	535	22.844859725624	0
3	592	23.844859725624	1
3	593	23.844859725624	0
3	641	24.537447321493	1
3	642	24.537447321493	0
3	673	24.844859725624	1
3	674	24.844859725624	0
3	709	25.537447321493	1
3	710	25.537447321493	0
3	738	25.934090783447	1
3	739	25.934090783447	0
3	802	28.067591764857	1
3	803	28.067591764857	0
3	826	29.009175789202	1
3	827	29.067591764857	0
3	855	30.009175789202	1
3	856	30.009175789202	0
3	888	30.534617971235	1
3	889	30.534617971235	0
3	951	32.203175805204	1
3	952	32.203175805204	0
3	1002	33.992243786152	1
3	1003	33.992243786152	0
3	1078	38.22486352916	1
3	1079	38.22486352916	0
3	1116	40.446704427518	1
3	1117	40.446704427518	0
3	1168	42.743665615666	1
3	1169	42.743665615666	0
3	1243	44.938668636265	1
3	1244	44.938668636265	0
3	1325	47.979742515097	1
3	1326	47.979742515097	0
3	1376	49.494742518779	1
3	1377	49.494742518779	0
3	1422	50.494742518779	1
3	1423	50.494742518779	0
3	1473	51.494742518779	1
3	1474	51.494742518779	0
3	1497	51.655518253596	1
3	1498	51.655518253596	0
3	1550	52.738626017096	1
3	1551	52.738626017096	0
3	1587	53.738626017096	1
3	1588	53.738626017096	0
3	1632	55.222547445624	1
3	1633	55.222547445624	0
3	1743	58.134468626367	1
3	1744	58.134468626367	0
3	1760	58.393525680818	1
3	1761	58.393525680818	0
3	1798	59.134468626367	1
3	1803	59.393525680818	0
3	1825	59.629526418703	1
3	1826	59.629526418703	0
3	1853	60.134468626367	1
3	1854	60.134468626367	0
3	1903	61.134468626367	1
3	1904	61.134468626367	0
3	1951	62.134468626367	1
3	1952	62.134468626367	0
3	2004	63.134468626367	1
3	2005	63.134468626367	0
3	2045	63.409954665013	1
3	2046	63.409954665013	0
3	2078	64.134468626367	1
3	2079	64.134468626367	0
3	2139	65.134468626367	1
3	2140	65.134468626367	0
3	2192	66.134468626367	1
3	2193	66.134468626367	0
3	2237	66.394325680818	1
3	2238	66.394325680818	0
3	2265	67.134468626367	1
3	2266	67.134468626367	0
3	2305	67.394325680818	1
3	2306	67.394325680818	0
3	2337	68.134468626367	1
3	2338	68.134468626367	0
3	2365	68.394325680818	1
3	2366	68.394325680818	0
3	2431	70.134468626367	1
3	2432	70.134468626367	0
3	2470	71.134468626367	1
3	2471	71.134468626367	0
3	2499	71.712974654228	1
3	2500	71.712974654228	0
3	2560	73.132673999384	1
3	2561	73.132673999384	0
3	2650	75.475682675992	1
3	2651	75.475682675992	0
3	2689	75.787560996736	1
3	2690	75.787560996736	0
3	2718	76.475682675992	1
3	2719	76.475682675992	0
3	2763	77.475682675992	1
3	2764	77.475682675992	0
3	2803	78.475682675992	1
3	2804	78.475682675992	0
3	2859	79.475682675992	1
3	2860	79.475682675992	0
3	2907	80.475682675992	1
3	2908	80.475682675992	0
3	2930	80.671953252414	1
3	2931	80.671953252414	0
3	2964	81.475682675992	1
3	2965	81.475682675992	0
3	3007	82.475682675992	1
3	3008	82.475682675992	0
3	3045	83.475682675992	1
3	3046	83.475682675992	0
3	3079	84.475682675992	1
3	3080	84.475682675992	0
3	3116	85.689651133312	1
3	3117	85.689651133312	0
3	3135	85.777476295491	1
3	3136	85.777476295491	0
3	3204	87.495520952493	1
3	3205	87.495520952493	0
3	3273	89.886162122129	1
3	3274	89.886162122129	0
3	3287	90.067434450766	1
3	3288	90.067434450766	0
3	3404	92.827469219661	1
3	3405	92.827469219661	0
3	3434	93.090058757616	1
3	3435	93.090058757616	0
3	3474	93.827469219661	1
3	3475	93.827469219661	0
3	3503	94.090058757616	1
3	3504	94.090058757616	0
3	3566	95.090058757616	1
3	3567	95.090058757616	0
3	3600	95.464033253122	1
3	3601	95.464033253122	0
3	3645	96.464033253122	1
3	3646	96.464033253122	0
3	3678	97.090058757616	1
3	3679	97.090058757616	0
3	3728	97.464033253122	1
3	3729	97.464033253122	0
3	3781	98.464033253122	1
3	3782	98.464033253122	0
3	3812	99.374827807816	1
3	3813	99.374827807816	0
3	3863	101.014938439245	1
3	3864	101.014938439245	0
3	3896	102.014938439245	1
3	3897	102.014938439245	0
3	3944	103.014938439245	1
3	3945	103.014938439245	0
3	3981	104.014938439245	1
3	3982	104.014938439245	0
3	4015	104.835093123093	1
3	4016	104.835093123093	0
3	4054	105.014938439245	1
3	4055	105.014938439245	0
3	4131	107.071533778736	1
3	4132	107.071533778736	0
3	4156	107.173649043596	1
3	4157	107.173649043596	0
3	4219	109.027370045865	1
3	4220	109.027370045865	0
3	4297	110.788273114507	1
3	4298	110.788273114507	0
3	4374	113.277060018976	1
3	4375	113.277060018976	0
3	4455	114.581145862676	1
3	4456	114.581145862676	0
3	4520	115.581145862676	1
3	4521	115.581145862676	0
3	4544	116.100884435105	1
3	4545	116.100884435105	0
3	4606	116.581145862676	1
3	4607	116.581145862676	0
3	4633	116.789019534904	1
3	4634	116.789019534904	0
3	4664	117.581145862676	1
3	4669	117.789019534904	0
3	4707	118.581145862676	1
3	4708	118.581145862676	0
3	4762	119.581145862676	1
3	4763	119.581145862676	0
3	4819	120.581145862676	1
3	4820	120.581145862676	0
3	4873	120.974210287291	1
3	4874	120.974210287291	0
3	4917	121.581145862676	1
3	4918	121.581145862676	0
3	4976	121.989784248619	1
3	4977	121.989784248619	0
3	5044	122.989784248619	1
3	5045	122.989784248619	0
3	5093	123.14247031987	1
3	5094	123.14247031987	0
3	5154	124.14247031987	1
3	5155	124.14247031987	0
3	5188	125.14247031987	1
3	5189	125.14247031987	0
3	5236	126.14247031987	1
3	5237	126.14247031987	0
3	5277	127.894732199603	1
3	5278	127.894732199603	0
3	5330	128.661355870379	1
3	5331	128.661355870379	0
3	5417	132.578495953439	1
3	5418	132.578495953439	0
3	5465	133.578495953439	1
3	5466	133.578495953439	0
3	5519	135.199239840474	1
3	5520	135.199239840474	0
3	5548	136.199239840474	1
3	5549	136.199239840474	0
3	5623	138.473699904403	1
3	5624	138.473699904403	0
3	5689	141.473699904403	1
3	5690	141.473699904403	0
3	5704	141.767235708926	1
3	5705	141.767235708926	0
3	5720	142.441596366344	1
3	5721	142.441596366344	0
3	5736	142.721430459752	1
3	5746	142.926612605428	2
3	5747	143.441596366344	1
3	5774	144.441596366344	0
3	5876	147.462185057736	1
3	5877	147.462185057736	0
3	5924	149.425962083738	1
3	5925	149.425962083738	0
3	5990	150.442396366344	1
3	5991	150.442396366344	0
3	6050	151.442396366344	1
3	6051	151.442396366344	0
3	6098	152.442396366344	1
3	6099	152.442396366344	0
3	6127	152.871501962802	1
3	6128	152.871501962802	0
3	6177	154.509039405804	1
3	6178	154.509039405804	0
3	6202	155.107463753331	1
3	6212	155.509039405804	0
3	6239	156.107463753331	1
3	6240	156.107463753331	0
3	6254	156.237813985854	1
3	6255	156.237813985854	0
3	6299	157.237813985854	1
3	6300	157.237813985854	0
3	6354	158.237813985854	1
3	6355	158.237813985854	0
3	6379	158.300857987013	1
3	6380	158.300857987013	0
3	6474	160.415081480638	1
3	6475	160.415081480638	0
3	6519	161.039616648642	1
3	6520	161.039616648642	0
3	6542	162.039616648642	1
3	6543	162.039616648642	0
3	6625	166.100526700454	1
3	6626	166.100526700454	0
3	6659	167.100526700454	1
3	6660	167.100526700454	0
3	6705	168.245186093101	1
3	6706	168.245186093101	0
3	6744	169.170118366025	1
3	6745	169.170118366025	0
3	6792	170.170118366025	1
3	6793	170.170118366025	0
3	6816	170.404089973786	1
3	6817	170.404089973786	0
3	6871	171.995614841389	1
3	6872	171.995614841389	0
3	6899	172.203508811883	1
3	6900	172.203508811883	0
3	7028	175.871434932954	1
3	7029	175.871434932954	0
3	7077	177.314004796103	1
3	7078	177.314004796103	0
3	7109	178.314004796103	1
3	7110	178.314004796103	0
3	7131	179.314004796103	1
3	7132	179.314004796103	0
3	7174	180.314004796103	1
3	7175	180.314004796103	0
3	7192	181.314004796103	1
3	7193	181.314004796103	0
3	7209	182.085531421388	1
3	7210	182.085531421388	0
3	7220	182.314004796103	1
3	7225	183.085531421388	0
3	7283	185.802966472624	1
3	7284	185.802966472624	0
3	7319	186.158083994655	1
3	7320	186.158083994655	0
3	7392	188.194545641807	1
3	7393	188.194545641807	0
3	7434	188.942747028767	1
3	7435	188.942747028767	0
3	7542	191.014951687241	1
3	7543	191.014951687241	0
3	7595	191.611198711778	1
3	7596	191.611198711778	0
3	7633	192.014951687241	1
3	7634	192.014951687241	0
3	7675	192.611198711778	1
3	7676	192.611198711778	0
3	7707	193.014951687241	1
3	7708	193.014951687241	0
3	7746	193.611198711778	1
3	7747	193.611198711778	0
3	7766	194.014951687241	1
3	7767	194.014951687241	0
3	7828	194.611198711778	1
3	7829	194.611198711778	0
3	7890	195.611198711778	1
3	7891	195.611198711778	0
3	7920	196.025811133951	1
3	7921	196.025811133951	0
3	7991	197.124850322482	1
3	7992	197.124850322482	0
3	8023	197.611198711778	1
3	8024	197.611198711778	0
3	8037	198.124850322482	1
3	8038	198.124850322482	0
3	8065	198.611198711778	1
3	8066	198.611198711778	0
3	8099	199.611198711778	1
3	8100	199.611198711778	0
4	11	3.472213973963	1
4	304	15.064740143037	1
4	439	19.036884928217	1
4	580	23.537247321493	1
4	630	24.537247321493	1
4	789	27.207132542754	1
4	811	28.207132542754	1
4	921	31.202975805204	1
4	974	32.992043786152	1
4	1056	37.22466352916	1
4	1095	39.446504427518	1
4	1148	41.743465615666	1
4	1223	43.938468636265	1
4	1314	47.821063482617	1
4	1365	48.821063482617	1
4	1411	49.821063482617	1
4	1704	57.134268626367	1
4	1732	58.134268626367	1
4	1787	59.134268626367	1
4	1842	60.134268626367	1
4	1892	61.134268626367	1
4	1940	62.134268626367	1
4	1993	63.134268626367	1
4	2067	64.134268626367	1
4	2128	65.134268626367	1
4	2181	66.134268626367	1
4	2254	67.134268626367	1
4	2354	68.292097604298	1
4	2399	69.292097604298	1
4	2526	72.132473999384	1
4	2614	74.475482675992	1
4	2639	75.475482675992	1
4	2707	76.475482675992	1
4	2752	77.475482675992	1
4	2792	78.475482675992	1
4	2848	79.475482675992	1
4	2896	80.475482675992	1
4	2953	81.475482675992	1
4	2996	82.475482675992	1
4	3034	83.475482675992	1
4	3096	84.689451133312	1
4	3175	86.495320952493	1
4	3230	88.148767895072	1
4	3364	92.089858757616	1
4	3423	93.089858757616	1
4	3492	94.089858757616	1
4	3612	95.553387124769	1
4	3769	98.374627807816	1
4	3837	100.014738439245	1
4	3852	101.014738439245	1
4	3885	102.014738439245	1
4	3933	103.014738439245	1
4	3970	104.014738439245	1
4	4110	106.173449043596	1
4	4190	108.027170045865	1
4	4339	112.276860018976	1
4	4419	113.580945862676	1
4	4444	114.580945862676	1
4	4509	115.580945862676	1
4	4595	116.580945862676	1
4	4653	117.580945862676	1
4	4696	118.580945862676	1
4	4751	119.580945862676	1
4	4808	120.580945862676	1
4	5014	122.14227031987	1
4	5082	123.14227031987	1
4	5143	124.14227031987	1
4	5177	125.14227031987	1
4	5252	126.894532199603	1
4	5395	131.578295953439	1
4	5406	132.578295953439	1
4	5497	134.199039840474	1
4	5508	135.199039840474	1
4	5592	137.473499904403	1
4	5613	138.473499904403	1
4	5712	141.926412605428	1
4	5895	148.425762083738	1
4	6067	151.871301962802	1
4	6167	154.107263753331	1
4	6191	155.107263753331	1
4	6312	157.300657987013	1
4	6462	160.039416648642	1
4	6508	161.039416648642	1
4	6595	165.100326700454	1
4	6614	166.100326700454	1
4	6675	167.244986093101	1
4	6776	169.403889973786	1
4	6841	171.203308811883	1
4	7042	176.177279805937	1
4	7066	177.177279805937	1
4	7098	178.177279805937	1
4	7120	179.177279805937	1
4	7163	180.177279805937	1
4	7181	181.177279805937	1
4	7263	185.157883994655	1
4	7371	187.942547028767	1
4	7525	190.610998711778	1
4	7584	191.610998711778	1
4	7664	192.610998711778	1
4	7735	193.610998711778	1
4	7817	194.610998711778	1
4	7880	195.610998711778	1
4	7967	196.610998711778	1
4	8013	197.610998711778	1
5	12	3.472213973963	1
5	13	3.472213973963	0
5	305	15.064740143037	1
5	306	15.064740143037	0
5	440	19.036884928217	1
5	441	19.036884928217	0
5	581	23.537247321493	1
5	582	23.537247321493	0
5	631	24.537247321493	1
5	632	24.537247321493	0
5	775	27.008975789202	1
5	776	27.008975789202	0
5	790	27.207132542754	1
5	791	28.008975789202	0
5	812	28.207132542754	1
5	817	29.008975789202	0
5	922	31.202975805204	1
5	923	31.202975805204	0
5	975	32.992043786152	1
5	976	32.992043786152	0
5	1057	37.22466352916	1
5	1058	37.22466352916	0
5	1096	39.446504427518	1
5	1097	39.446504427518	0
5	1149	41.743465615666	1
5	1150	41.743465615666	0
5	1158	42.34979157045	1
5	1159	42.743465615666	0
5	1224	43.938468636265	1
5	1225	43.938468636265	0
5	1292	47.494542518779	1
5	1293	47.494542518779	0
5	1315	47.821063482617	1
5	1331	48.494542518779	0
5	1366	48.821063482617	1
5	1367	49.494542518779	0
5	1412	49.821063482617	1
5	1413	50.494542518779	0
5	1613	54.644565639223	1
5	1614	54.644565639223	0
5	1705	57.134268626367	1
5	1706	57.134268626367	0
5	1733	58.134268626367	1
5	1734	58.134268626367	0
5	1788	59.134268626367	1
5	1789	59.134268626367	0
5	1843	60.134268626367	1
5	1844	60.134268626367	0
5	1893	61.134268626367	1
5	1894	61.134268626367	0
5	1941	62.134268626367	1
5	1942	62.134268626367	0
5	1994	63.134268626367	1
5	1995	63.134268626367	0
5	2068	64.134268626367	1
5	2069	64.134268626367	0
5	2129	65.134268626367	1
5	2130	65.134268626367	0
5	2182	66.134268626367	1
5	2183	66.134268626367	0
5	2255	67.134268626367	1
5	2256	67.134268626367	0
5	2327	67.740556973185	1
5	2328	68.134268626367	0
5	2355	68.292097604298	1
5	2388	69.134268626367	0
5	2400	69.292097604298	1
5	2422	70.134268626367	0
5	2527	72.132473999384	1
5	2528	72.132473999384	0
5	2615	74.475482675992	1
5	2616	74.475482675992	0
5	2640	75.475482675992	1
5	2641	75.475482675992	0
5	2708	76.475482675992	1
5	2709	76.475482675992	0
5	2753	77.475482675992	1
5	2754	77.475482675992	0
5	2793	78.475482675992	1
5	2794	78.475482675992	0
5	2849	79.475482675992	1
5	2850	79.475482675992	0
5	2897	80.475482675992	1
5	2898	80.475482675992	0
5	2954	81.475482675992	1
5	2955	81.475482675992	0
5	2997	82.475482675992	1
5	2998	82.475482675992	0
5	3035	83.475482675992	1
5	3036	83.475482675992	0
5	3097	84.689451133312	1
5	3098	84.689451133312	0
5	3176	86.495320952493	1
5	3177	86.495320952493	0
5	3211	87.885962122129	1
5	3212	87.885962122129	0
5	3231	88.148767895072	1
5	3232	88.885962122129	0
5	3365	92.089858757616	1
5	3366	92.089858757616	0
5	3424	93.089858757616	1
5	3425	93.089858757616	0
5	3493	94.089858757616	1
5	3494	94.089858757616	0
5	3521	94.438393040529	1
5	3557	95.089858757616	0
5	3613	95.553387124769	1
5	3618	96.089858757616	0
5	3770	98.374627807816	1
5	3771	98.374627807816	0
5	3838	100.014738439245	1
5	3839	100.014738439245	0
5	3853	101.014738439245	1
5	3854	101.014738439245	0
5	3886	102.014738439245	1
5	3887	102.014738439245	0
5	3934	103.014738439245	1
5	3935	103.014738439245	0
5	3971	104.014738439245	1
5	3972	104.014738439245	0
5	4111	106.173449043596	1
5	4112	106.173449043596	0
5	4191	108.027170045865	1
5	4192	108.027170045865	0
5	4340	112.276860018976	1
5	4341	112.276860018976	0
5	4420	113.580945862676	1
5	4421	113.580945862676	0
5	4445	114.580945862676	1
5	4446	114.580945862676	0
5	4510	115.580945862676	1
5	4511	115.580945862676	0
5	4596	116.580945862676	1
5	4597	116.580945862676	0
5	4654	117.580945862676	1
5	4655	117.580945862676	0
5	4697	118.580945862676	1
5	4698	118.580945862676	0
5	4752	119.580945862676	1
5	4753	119.580945862676	0
5	4809	120.580945862676	1
5	4810	120.580945862676	0
5	5015	122.14227031987	1
5	5016	122.14227031987	0
5	5083	123.14227031987	1
5	5084	123.14227031987	0
5	5144	124.14227031987	1
5	5145	124.14227031987	0
5	5178	125.14227031987	1
5	5179	125.14227031987	0
5	5253	126.894532199603	1
5	5254	126.894532199603	0
5	5396	131.578295953439	1
5	5397	131.578295953439	0
5	5407	132.578295953439	1
5	5408	132.578295953439	0
5	5498	134.199039840474	1
5	5499	134.199039840474	0
5	5509	135.199039840474	1
5	5510	135.199039840474	0
5	5593	137.473499904403	1
5	5594	137.473499904403	0
5	5597	137.699348777868	1
5	5609	138.100637262834	2
5	5612	138.473499904403	1
5	5614	138.473499904403	2
5	5638	139.473499904403	1
5	5657	140.473499904403	0
5	5713	141.926412605428	1
5	5714	141.926412605428	0
5	5717	142.300265469321	1
5	5737	142.926412605428	0
5	5851	146.801579181821	1
5	5852	146.801579181821	0
5	5896	148.425762083738	1
5	5897	148.425762083738	0
5	5965	149.919515415259	1
5	5966	149.919515415259	0
5	6068	151.871301962802	1
5	6069	151.871301962802	0
5	6168	154.107263753331	1
5	6169	154.107263753331	0
5	6192	155.107263753331	1
5	6193	155.107263753331	0
5	6313	157.300657987013	1
5	6314	157.300657987013	0
5	6463	160.039416648642	1
5	6464	160.039416648642	0
5	6509	161.039416648642	1
5	6510	161.039416648642	0
5	6596	165.100326700454	1
5	6597	165.100326700454	0
5	6615	166.100326700454	1
5	6616	166.100326700454	0
5	6676	167.244986093101	1
5	6677	167.244986093101	0
5	6777	169.403889973786	1
5	6778	169.403889973786	0
5	6842	171.203308811883	1
5	6843	171.203308811883	0
5	6889	172.0364218874	1
5	6890	172.203308811883	0
5	6980	174.313804796103	1
5	6981	174.313804796103	0
5	6984	174.379610050752	1
5	7006	175.313804796103	0
5	7043	176.177279805937	1
5	7044	176.313804796103	0
5	7067	177.177279805937	1
5	7068	177.313804796103	0
5	7099	178.177279805937	1
5	7100	178.313804796103	0
5	7121	179.177279805937	1
5	7122	179.313804796103	0
5	7164	180.177279805937	1
5	7165	180.313804796103	0
5	7182	181.177279805937	1
5	7183	181.313804796103	0
5	7264	185.157883994655	1
5	7265	185.157883994655	0
5	7372	187.942547028767	1
5	7373	187.942547028767	0
5	7526	190.610998711778	1
5	7527	190.610998711778	0
5	7585	191.610998711778	1
5	7586	191.610998711778	0
5	7665	192.610998711778	1
5	7666	192.610998711778	0
5	7736	193.610998711778	1
5	7737	193.610998711778	0
5	7818	194.610998711778	1
5	7819	194.610998711778	0
5	7846	194.974508721797	1
5	7879	195.610998711778	0
5	7881	195.610998711778	1
5	7966	196.610998711778	0
5	7968	196.610998711778	1
5	8012	197.610998711778	0
5	8014	197.610998711778	1
5	8056	198.610998711778	0
6	19	4.395997146052	1
6	37	5.395997146052	1
6	271	14.064640143037	1
6	522	22.537147321493	1
6	576	23.537147321493	1
6	770	26.207032542754	1
6	785	27.207032542754	1
6	831	29.067691764857	1
6	876	30.202875805204	1
6	926	31.991943786152	1
6	1085	38.446404427518	1
6	1138	40.743365615666	1
6	1204	42.938368636265	1
6	1283	46.820963482617	1
6	1310	47.820963482617	1
6	1361	48.820963482617	1
6	1676	56.134168626367	1
6	1700	57.134168626367	1
6	1727	58.134168626367	1
6	1783	59.134168626367	1
6	1807	59.393625680818	1
6	1861	60.351919844358	1
6	1910	61.351919844358	1
6	1988	63.05759889573	1
6	2062	64.05759889573	1
6	2176	65.952381129704	1
6	2282	67.291997604298	1
6	2350	68.291997604298	1
6	2458	71.132373999384	1
6	2581	73.475382675992	1
6	2610	74.475382675992	1
6	2634	75.475382675992	1
6	2702	76.475382675992	1
6	2747	77.475382675992	1
6	2788	78.475382675992	1
6	2886	79.505117638723	1
6	2919	80.505117638723	1
6	2991	81.505117638723	1
6	3067	83.689351133312	1
6	3335	91.089758757616	1
6	3360	92.089758757616	1
6	3551	94.553287124769	1
6	3705	97.374527807816	1
6	3797	99.014638439245	1
6	3833	100.014638439245	1
6	3847	101.014638439245	1
6	3880	102.014638439245	1
6	3928	103.014638439245	1
6	4095	105.173349043596	1
6	4119	107.027070045865	1
6	4314	111.276760018976	1
6	4362	112.580845862676	1
6	4415	113.580845862676	1
6	4439	114.580845862676	1
6	4504	115.580845862676	1
6	4590	116.580845862676	1
6	4648	117.580845862676	1
6	4673	117.789119534904	1
6	4691	118.580845862676	1
6	4746	119.580845862676	1
6	4905	121.14217031987	1
6	5010	122.14217031987	1
6	5077	123.14217031987	1
6	5224	125.894432199603	1
6	5377	130.578195953439	1
6	5391	131.578195953439	1
6	5449	133.198939840474	1
6	5493	134.198939840474	1
6	5584	136.499956430657	1
6	5673	140.926312605428	1
6	5749	143.441696366344	1
6	5779	144.441696366344	1
6	5855	147.425662083738	1
6	6139	153.107163753331	1
6	6163	154.107163753331	1
6	6216	155.509139405804	1
6	6262	156.300557987013	1
6	6458	159.774032175479	1
6	6582	164.100226700454	1
6	6642	166.244886093101	1
6	6727	168.403789973786	1
6	6800	170.203208811883	1
6	7003	175.177179805937	1
6	7039	176.177179805937	1
6	7094	177.862101304627	1
6	7116	178.862101304627	1
6	7229	183.085631421388	1
6	7346	186.942447028767	1
6	7488	189.610898711778	1
6	7521	190.610898711778	1
6	7579	191.610898711778	1
6	7659	192.610898711778	1
6	7730	193.610898711778	1
6	7813	194.610898711778	1
7	20	4.395997146052	1
7	21	4.395997146052	0
7	39	5.395997146052	1
7	40	5.395997146052	0
7	85	7.839344984754	1
7	86	7.839344984754	0
7	189	11.396797146052	1
7	190	11.396797146052	0
7	228	12.396797146052	1
7	229	12.396797146052	0
7	292	14.396797146052	1