version 3
run General-0-20250513-15:34:24-24545
attr configname General
attr datetime 20250513-15:34:24
attr datetimef 20250513-153424
attr experiment General
attr inifile omnetpp.ini
attr iterationvars ""
attr iterationvarsd ""
attr iterationvarsf ""
attr measurement ""
attr network Network
attr processid 24545
attr repetition 0
attr replication #0
attr resultdir results
attr runnumber 0
attr seedset 0
config network Network
config sim-time-limit 200s
config Network.queueRx.serviceTime exponential(0.001)
config Network.queueTx.serviceTime exponential(0.001)
config Network.nodeRx.transport.serviceTime exponential(0.001)
config Network.nodeTx.transport.serviceTime exponential(0.001)
config Network.nodeTx.gen.generationInterval exponential(0.1)
config Network.nodeTx.gen.packetByteSize 12500
config Network.nodeRx.transport.bufferSize 200
config Network.nodeTx.transport.bufferSize 200000
config Network.queueRx.bufferSize 200
config Network.queueTx.bufferSize 2000000

vector 0 Network.nodeTx.gen packetGen ETV
vector 1 Network.nodeTx.transport bufferSize ETV
vector 2 Network.queueTx bufferSize ETV
vector 3 Network.nodeRx.transport bufferSize ETV
vector 4 Network.nodeRx.sink Delay ETV
vector 5 Network.nodeRx.sink packetUsed ETV
vector 6 Network.nodeRx.transport packetDrop ETV
0	1	0.079587450457	1
0	8	0.169443489305	1
0	26	0.29503656511	1
0	44	0.480996986317	1
0	53	0.573319299464	1
0	72	0.768473833052	1
0	81	0.84719394705	1
0	100	1.03509035247	1
0	111	1.090195201137	1
0	120	1.187895843776	1
0	132	1.291711773842	1
0	142	1.340224590214	1
0	144	1.397776509902	1
0	146	1.433092423816	1
0	174	1.65544486602	1
0	176	1.661283332929	1
0	206	1.992774560922	1
0	213	2.024610175006	1
0	217	2.072970385501	1
0	228	2.137915020326	1
0	248	2.294804632088	1
0	258	2.46202575212	1
0	270	2.537293163451	1
0	280	2.602681420173	1
0	284	2.686624705463	1
0	294	2.736511906365	1
0	322	2.99633731495	1
0	340	3.177174241377	1
0	347	3.184542776924	1
0	351	3.225700576548	1
0	353	3.23481667916	1
0	364	3.339277929991	1
0	366	3.341320488831	1
0	376	3.387245302557	1
0	388	3.565994068901	1
0	426	3.881011061769	1
0	436	4.031589487633	1
0	438	4.046712572999	1
0	458	4.250743998793	1
0	478	4.454833220384	1
0	500	4.839355407298	1
0	509	4.903526324566	1
0	526	5.064050280272	1
0	544	5.225450487761	1
0	555	5.287343433724	1
0	564	5.360839875843	1
0	576	5.512493473242	1
0	594	5.626087367413	1
0	601	5.638674808357	1
0	614	5.766197578579	1
0	624	5.868340766014	1
0	636	5.955572885518	1
0	638	5.971045853568	1
0	648	6.048129319415	1
0	678	6.337571367214	1
0	694	6.479707835223	1
0	705	6.553490564399	1
0	707	6.564685180462	1
0	716	6.618241752485	1
0	728	6.682411222688	1
0	730	6.713139257903	1
0	732	6.733759586106	1
0	752	6.882585068681	1
0	762	7.016114087143	1
0	764	7.077022329461	1
0	776	7.101427178535	1
0	786	7.185460649096	1
0	788	7.199988451825	1
0	790	7.201885308745	1
0	792	7.241062389813	1
0	804	7.33720048372	1
0	806	7.353414132665	1
0	816	7.448113800382	1
0	818	7.473257993589	1
0	830	7.569212791326	1
0	840	7.618068496257	1
0	870	7.905859998385	1
0	890	8.138751335806	1
0	900	8.253265231276	1
0	912	8.313039838958	1
0	914	8.357591688463	1
0	924	8.452541146813	1
0	936	8.509994387487	1
0	956	8.742629493656	1
0	966	8.862240273602	1
0	968	8.87269639618	1
0	970	8.878907925227	1
0	1008	9.228929293672	1
0	1020	9.338820540427	1
0	1030	9.444703953576	1
0	1042	9.555763698145	1
0	1044	9.574506304747	1
0	1054	9.598126975355	1
0	1056	9.642467378217	1
0	1058	9.65627024706	1
0	1078	9.795174516039	1
0	1080	9.833070712467	1
0	1092	9.926676868444	1
0	1094	9.971887074466	1
0	1104	10.011198330196	1
0	1116	10.095641109549	1
0	1118	10.09955942519	1
0	1120	10.157291856271	1
0	1130	10.257878956788	1
0	1178	10.703328641406	1
0	1206	11.022623305611	1
0	1208	11.033386816427	1
0	1220	11.139169457762	1
0	1222	11.16259960964	1
0	1232	11.263401534182	1
0	1244	11.280992888725	1
0	1290	11.817002923749	1
0	1302	11.922877195258	1
0	1312	12.010068780621	1
0	1314	12.039276833948	1
0	1326	12.092783301656	1
0	1328	12.155577459755	1
0	1338	12.219955559915	1
0	1340	12.247983260763	1
0	1352	12.34566966817	1
0	1354	12.362982413785	1
0	1364	12.404232536777	1
0	1366	12.415928077756	1
0	1378	12.528244907909	1
0	1388	12.635052127624	1
0	1390	12.673207711961	1
0	1402	12.688078938886	1
0	1412	12.838742472213	1
0	1414	12.860630531864	1
0	1444	13.159349521049	1
0	1454	13.205350916823	1
0	1466	13.313977854911	1
0	1486	13.486011020683	1
0	1488	13.487377478526	1
0	1490	13.497591966678	1
0	1500	13.595102160094	1
0	1512	13.777084052022	1
0	1532	13.889065488597	1
0	1534	13.899168966128	1
0	1562	14.256527803362	1
0	1600	14.63143094932	1
0	1620	14.841963079399	1
0	1632	14.905196739039	1
0	1634	14.976455098372	1
0	1672	15.352647826822	1
0	1674	15.358380519464	1
0	1684	15.451228369154	1
0	1696	15.511223057818	1
0	1706	15.645647585033	1
0	1708	15.647666597848	1
0	1710	15.651664227754	1
0	1722	15.709952066641	1
0	1724	15.743193090737	1
0	1762	16.132350103022	1
0	1764	16.145155779553	1
0	1774	16.189697725745	1
0	1776	16.224815334683	1
0	1788	16.290379963119	1
0	1790	16.303018826762	1
0	1800	16.419706179417	1
0	1802	16.457976274303	1
0	1822	16.670399994003	1
0	1834	16.723888431579	1
0	1854	16.974279609888	1
0	1864	16.980909350036	1
0	1866	17.005348894844	1
0	1878	17.123267847551	1
0	1888	17.206552199158	1
0	1900	17.290161952355	1
0	1920	17.490486004606	1
0	1922	17.521327488616	1
0	1932	17.592452282338	1
0	1934	17.666528177383	1
0	1964	17.915086413081	1
0	1966	17.924951443923	1
0	1986	18.178981894719	1
0	1996	18.264771458826	1
0	1998	18.27344850706	1
0	2028	18.538374099928	1
0	2030	18.570908141481	1
0	2040	18.609264162891	1
0	2042	18.610204237957	1
0	2054	18.720288828966	1
0	2074	18.905021594066	1
0	2076	18.919154665422	1
0	2086	19.02333273084	1
0	2098	19.149326111851	1
0	2118	19.333454359	1
0	2120	19.367619775703	1
0	2130	19.398371548079	1
0	2132	19.418606591936	1
0	2134	19.469326604262	1
0	2146	19.557639508458	1
0	2156	19.638119248438	1
0	2158	19.640150494318	1
0	2160	19.658175719516	1
0	2180	19.834749826757	1
0	2192	19.880922916361	1
0	2194	19.88139357041	1
0	2196	19.897227721033	1
0	2206	20.01049113523	1
0	2218	20.094799438445	1
0	2220	20.12627160453	1
0	2230	20.247922469874	1
0	2250	20.380798257249	1
0	2252	20.414832931073	1
0	2282	20.742347248844	1
0	2292	20.799137664192	1
0	2294	20.827739761443	1
0	2306	20.968842202372	1
0	2316	21.054681499155	1
0	2328	21.105115879814	1
0	2338	21.194774966893	1
0	2358	21.421148324479	1
0	2370	21.506070405635	1
0	2380	21.607936278637	1
0	2382	21.633178277926	1
0	2402	21.855328967773	1
0	2432	22.160557133461	1
0	2442	22.274517929814	1
0	2454	22.333780332559	1
0	2464	22.393418271992	1
0	2484	22.580764259978	1
0	2514	22.965064918302	1
0	2534	23.085288775027	1
0	2536	23.097641439763	1
0	2538	23.13294345309	1
0	2548	23.278625308946	1
0	2568	23.446717529401	1
0	2580	23.499789779063	1
0	2582	23.550291653838	1
0	2592	23.662819855522	1
0	2612	23.875769795129	1
0	2624	23.904510842736	1
0	2634	23.991564425369	1
0	2636	24.02913830961	1
0	2656	24.242621354608	1
0	2686	24.579058399913	1
0	2706	24.696996693277	1
0	2716	24.785782834321	1
0	2728	24.914973761201	1
0	2738	25.022757249615	1
0	2750	25.092337195705	1
0	2752	25.168523972835	1
0	2784	25.481070808601	1
0	2791	25.507276532769	1
0	2800	25.610556233834	1
0	2802	25.66078731366	1
0	2814	25.715926912673	1
0	2824	25.812372269222	1
0	2836	25.905612557263	1
0	2838	25.970023028095	1
0	2840	25.97196100623	1
0	2850	26.035473777793	1
0	2852	26.07136649938	1
0	2872	26.197270851106	1
0	2884	26.305202870972	1
0	2886	26.33916934423	1
0	2888	26.3734293067	1
0	2898	26.421792875359	1
0	2910	26.518030380936	1
0	2920	26.65632830159	1
0	2932	26.712324408597	1
0	2952	26.923069169092	1
0	2954	26.937626566937	1
0	2956	26.948481276786	1
0	2966	26.983903690011	1
0	2968	26.993595965469	1
0	2970	27.077984812728	1
0	2982	27.121687614105	1
0	2992	27.211060521936	1
0	3004	27.291315720512	1
0	3006	27.376723694076	1
0	3008	27.380144035912	1
0	3028	27.48604497445	1
0	3056	27.833298522378	1
0	3068	27.938883483244	1
0	3070	27.977596492459	1
0	3080	28.034057542571	1
0	3082	28.059065692069	1
0	3112	28.285929091338	1
0	3114	28.301158453863	1
0	3116	28.346975742259	1
0	3118	28.357207803744	1
0	3128	28.414453958887	1
0	3166	28.828234934938	1
0	3186	29.050726400661	1
0	3190	29.080882991983	1
0	3208	29.244972749776	1
0	3220	29.321980435731	1
0	3230	29.443682385265	1
0	3242	29.503089735097	1
0	3244	29.51365099946	1
0	3246	29.52413918302	1
0	3266	29.776067396028	1
0	3276	29.819501961622	1
0	3288	29.944762714113	1
0	3298	30.008108975885	1
0	3364	30.684648027879	1
0	3374	30.868621306387	1
0	3386	30.884808315058	1
0	3406	31.119826044033	1
0	3426	31.322416925743	1
0	3433	31.326245217031	1
0	3435	31.343977774546	1
0	3439	31.414969567268	1
0	3450	31.51056620966	1
0	3460	31.528820069848	1
0	3462	31.542038440809	1
0	3474	31.69302078637	1
0	3494	31.881413675029	1
0	3514	32.081612324582	1
0	3532	32.246284234715	1
0	3536	32.299284522529	1
0	3546	32.383472618702	1
0	3548	32.398551719721	1
0	3558	32.45083872273	1
0	3560	32.454217401285	1
0	3562	32.461384939716	1
0	3600	32.866369623596	1
0	3612	32.985913480224	1
0	3622	33.032640736865	1
0	3626	33.09307064405	1
0	3636	33.147556356864	1
0	3646	33.275589777245	1
0	3650	33.280781032463	1
0	3670	33.482058306084	1
0	3680	33.527549490563	1
0	3710	33.898545549753	1
0	3712	33.900222326352	1
0	3732	34.093880050101	1
0	3734	34.120112981018	1
0	3736	34.12129130421	1
0	3754	34.266070712409	1
0	3758	34.310695994461	1
0	3786	34.599157169671	1
0	3806	34.730087006073	1
0	3822	34.868716141275	1
0	3831	34.887545638797	1
0	3833	34.929006893063	1
0	3844	35.002620003062	1
0	3854	35.069866054745	1
0	3856	35.075453060034	1
0	3860	35.116850952301	1
0	3862	35.139164873111	1
0	3864	35.158947823857	1
0	3866	35.160817370899	1
0	3876	35.179569266019	1
0	3888	35.33741053823	1
0	3898	35.399670272628	1
0	3900	35.425020843142	1
0	3920	35.632623949186	1
0	3930	35.674989659322	1
0	3952	35.963444088163	1
0	3980	36.226665974418	1
0	3992	36.32037984619	1
0	4002	36.442259526524	1
0	4014	36.533055929256	1
0	4016	36.536291609721	1
0	4036	36.689374732348	1
0	4038	36.707370466503	1
0	4048	36.776690443457	1
0	4058	36.873838659266	1
0	4060	36.879006949846	1
0	4064	36.965099313514	1
0	4084	37.085196404168	1
0	4086	37.112363211202	1
0	4132	37.600276500001	1
0	4160	37.872411325592	1
0	4164	37.903508106089	1
0	4174	37.998691076843	1
0	4186	38.112350726369	1
0	4196	38.189058691826	1
0	4216	38.388775888575	1
0	4226	38.477913746266	1
0	4238	38.616881452644	1
0	4250	38.74785998978	1
0	4274	39.081653423165	1
0	4281	39.119042072755	1
0	4290	39.199840078095	1
0	4292	39.250626590364	1
0	4294	39.274501877649	1
0	4306	39.298054334991	1
0	4308	39.323214196302	1
0	4310	39.34381740115	1
0	4312	39.36850332803	1
0	4340	39.65741088722	1
0	4352	39.741708764761	1
0	4362	39.876243508084	1
0	4374	39.936411406736	1
0	4384	40.0038358637	1
0	4414	40.355283731754	1
0	4416	40.381085008148	1
0	4436	40.495198798434	1
0	4438	40.524549563626	1
0	4440	40.533464992626	1
0	4442	40.539443088918	1
0	4444	40.54525032513	1
0	4454	40.602240081661	1
0	4456	40.66915145403	1
0	4468	40.706518433469	1
0	4488	40.919385442922	1
0	4498	41.038571253287	1
0	4536	41.41324071467	1
0	4538	41.460682343703	1
0	4550	41.55682630086	1
0	4552	41.576623074393	1
0	4562	41.654820646481	1
0	4564	41.657319481812	1
0	4584	41.8501554955	1
0	4586	41.857117262607	1
0	4606	41.993310435038	1
0	4618	42.107064285592	1
0	4620	42.172187358784	1
0	4630	42.232645480618	1
0	4642	42.345681035209	1
0	4652	42.422593015319	1
0	4664	42.51599904858	1
0	4684	42.742983050158	1
0	4694	42.868403377167	1
0	4721	43.332368629804	1
0	4728	43.395761631743	1
0	4730	43.420210733947	1
0	4741	43.481094025321	1
0	4751	43.589884468682	1
0	4771	43.826776285766	1
0	4782	43.857336775947	1
0	4790	43.872096379236	1
0	4798	43.874183101097	1
0	4808	43.900218242252	1
0	4826	44.042256587811	1
0	4838	44.255612916558	1
0	4849	44.294181685963	1
0	4873	44.528966062106	1
0	4875	44.577329900855	1
0	4887	44.681114908404	1
0	4897	44.769865101252	1
0	4908	44.809122404071	1
0	4920	44.986936737754	1
0	4929	45.060273505071	1
0	4940	45.159423934361	1
0	4947	45.159429469551	1
0	4966	45.365511593639	1
0	4968	45.402887923021	1
0	4970	45.434845388508	1
0	4982	45.490262471413	1
0	4992	45.650234415597	1
0	5007	45.866810783684	1
0	5018	45.887345560558	1
0	5032	46.001251325625	1
0	5062	46.306569792584	1
0	5064	46.367474253855	1
0	5077	46.483785582198	1
0	5086	46.549835890173	1
0	5088	46.57410773954	1
0	5103	46.729574033321	1
0	5114	47.024022061063	1
0	5121	47.050086074001	1
0	5132	47.181336873298	1
0	5152	47.393611538692	1
0	5154	47.422906684541	1
0	5164	47.460549619693	1
0	5168	47.484541971637	1
0	5191	47.800251525779	1
0	5200	47.873274292303	1
0	5211	47.937093152862	1
0	5218	47.939692927381	1
0	5227	48.064028005176	1
0	5231	48.087280507014	1
0	5233	48.103967971137	1
0	5243	48.159251808202	1
0	5255	48.290349045018	1
0	5264	48.337216692616	1
0	5276	48.441137256274	1
0	5286	48.50342018725	1
0	5293	48.527612151727	1
0	5297	48.560133753525	1
0	5299	48.580769552885	1
0	5310	48.669148118488	1
0	5322	48.833955735804	1
0	5333	49.033359655932	1
0	5349	49.170827651312	1
0	5351	49.183330910304	1
0	5363	49.295676960259	1
0	5373	49.368529344532	1
0	5375	49.400949255881	1
0	5377	49.415113459361	1
0	5387	49.434339603445	1
0	5399	49.560520870794	1
0	5412	49.682420805312	1
0	5419	49.732848798637	1
0	5432	49.795052490545	1
0	5440	49.87839031461	1
0	5452	50.061916654904	1
0	5463	50.082162531274	1
0	5470	50.105086963795	1
0	5472	50.120734540833	1
0	5474	50.138761970791	1
0	5483	50.205716029877	1
0	5485	50.219050092204	1
0	5487	50.262995631253	1
0	5507	50.391038066651	1
0	5528	50.673101661493	1
0	5536	50.676194290649	1
0	5548	50.821149768292	1
0	5559	50.958584069734	1
0	5575	51.096680379301	1
0	5577	51.106397147138	1
0	5597	51.340446343204	1
0	5607	51.364966152468	1
0	5609	51.373677010794	1
0	5622	51.512008657409	1
0	5631	51.592347833676	1
0	5646	51.723910459506	1
0	5655	51.811731967378	1
0	5664	51.816400741742	1
0	5677	52.143250381824	1
0	5684	52.16671596675	1
0	5686	52.201267925121	1
0	5688	52.235083396605	1
0	5697	52.262636190309	1
0	5709	52.375728038228	1
0	5711	52.386296755638	1
0	5713	52.392808042117	1
0	5715	52.394464651559	1
0	5725	52.475578753782	1
0	5747	52.740834605334	1
0	5749	52.741762907772	1
0	5768	52.852603883193	1
0	5780	53.031602843641	1
0	5791	53.185385715089	1
0	5833	53.600982824645	1
0	5835	53.634073812763	1
0	5847	53.755642860099	1
0	5858	53.843930914595	1
0	5866	53.863975134104	1
0	5874	53.870584335173	1
0	5886	53.942408983184	1
0	5895	54.008889758139	1
0	5906	54.095746331286	1
0	5938	54.475148709595	1
0	5959	54.630049877511	1
0	5971	54.839205534773	1
0	5982	54.9324667203	1
0	5989	54.973739706973	1
0	5991	54.998381289194	1
0	6020	55.324273386912	1
0	6030	55.385001315774	1
0	6032	55.411359027058	1
0	6047	55.622447904496	1
0	6060	55.920667972043	1
0	6067	55.988448172249	1
0	6094	56.272112191587	1
0	6106	56.397835891144	1
0	6126	56.558381767451	1
0	6137	56.624966016115	1
0	6149	56.724512380452	1
0	6158	56.847800426755	1
0	6169	57.055176573065	1
0	6178	57.12412002685	1
0	6187	57.158795357229	1
0	6199	57.344938521527	1
0	6219	57.533948691337	1
0	6229	57.555558312996	1
0	6231	57.651759505655	1
0	6246	57.80018375392	1
0	6255	57.801516278403	1
0	6268	58.167482011479	1
0	6275	58.210135592683	1
0	6294	58.408410483143	1
0	6296	58.424443892592	1
0	6316	58.576050785575	1
0	6349	58.976845751062	1
0	6362	59.397031693687	1
0	6369	59.462111427923	1
0	6388	59.602178997619	1
0	6390	59.670973345465	1
0	6392	59.671378977597	1
0	6404	59.773397686392	1
0	6414	59.804797476198	1
0	6416	59.850776607976	1
0	6428	59.903623330806	1
0	6430	59.918345834537	1
0	6432	59.974246601536	1
0	6452	60.14690993951	1
0	6454	60.182269597036	1
0	6465	60.203322925856	1
0	6473	60.254594390119	1
0	6485	60.326198921918	1
0	6494	60.339056945646	1
0	6503	60.364458083481	1
0	6516	60.759221410237	1
0	6523	60.769518246609	1
0	6525	60.821626128717	1
0	6544	61.019815162828	1
0	6556	61.104028793112	1
0	6593	61.46492289361	1
0	6603	61.507022223415	1
0	6625	61.831018520105	1
0	6636	61.98654795614	1
0	6660	62.223586714201	1
0	6662	62.276582872128	1
0	6682	62.425325847562	1
0	6684	62.469840781503	1
0	6696	62.510359069737	1
0	6698	62.561358153122	1
0	6700	62.569816102298	1
0	6711	62.605745492811	1
0	6719	62.658042258177	1
0	6731	62.807305474596	1
0	6740	62.83373252101	1
0	6753	63.094389701242	1
0	6760	63.108602252381	1
0	6762	63.147952493493	1
0	6764	63.153443230748	1
0	6791	63.458929208649	1
0	6803	63.588243994529	1
0	6805	63.589648653653	1
0	6807	63.590797978674	1
0	6817	63.667040347095	1
0	6838	63.814260762894	1
0	6846	63.850584984784	1
0	6854	63.86647830275	1
0	6868	64.080916849201	1
0	6875	64.089203076493	1
0	6877	64.118054347528	1
0	6879	64.127441802256	1
0	6888	64.240579679016	1
0	6900	64.352068421207	1
0	6920	64.518364999274	1
0	6922	64.546517401521	1
0	6933	64.603106855684	1
0	6941	64.657672627161	1
0	6953	64.797159536287	1
0	6962	64.878661369377	1
0	6973	65.055623351698	1
0	6989	65.252629108257	1
0	7001	65.300276966517	1
0	7011	65.430121530077	1
0	7013	65.440274938471	1
0	7023	65.471790941343	1
0	7027	65.501381128668	1
0	7029	65.51547791711	1
0	7039	65.605110837612	1
0	7041	65.610807490859	1
0	7052	65.675524961263	1
0	7062	65.711421093101	1
0	7071	65.7783513803	1
0	7073	65.808748536223	1
0	7084	65.870092445182	1
0	7096	65.930998890714	1
0	7105	66.005357209892	1
0	7116	66.120331348667	1
0	7123	66.178673725771	1
0	7134	66.297623350904	1
0	7154	66.489107576668	1
0	7164	66.522447910506	1
0	7166	66.57926495888	1
0	7177	66.627056757631	1
0	7189	66.802428222133	1
0	7198	66.822413775925	1
0	7209	66.893614582487	1
0	7223	67.04898913269	1
0	7225	67.058022857098	1
0	7227	67.063875646993	1
0	7239	67.171768337843	1
0	7251	67.291169674903	1
0	7261	67.314311772099	1
0	7272	67.465133295262	1
0	7284	67.653045138683	1
0	7295	67.803286418054	1
0	7311	67.917655480113	1
0	7313	67.947687988142	1
0	7315	67.967334176732	1
0	7325	68.014144822055	1
0	7327	68.021386733066	1
0	7339	68.109962797669	1
0	7341	68.110936338603	1
0	7343	68.142794723391	1
0	7363	68.365403122335	1
0	7374	68.411742125089	1
0	7382	68.426067427227	1
0	7390	68.448014243316	1
0	7402	68.599060403438	1
0	7411	68.660652331816	1
0	7424	68.919897192694	1
0	7431	68.924460997644	1
0	7440	69.050050346078	1
0	7452	69.210892130987	1
0	7462	69.278387228352	1
0	7466	69.286395113946	1
0	7476	69.349788326595	1
0	7486	69.422942860508	1
0	7507	69.637252830551	1
0	7515	69.673897959734	1
0	7527	69.740921147392	1
0	7536	69.827087896572	1
0	7547	69.880628331681	1
0	7579	70.201109214642	1
0	7581	70.220238819232	1
0	7593	70.323963328642	1
0	7604	70.388454177759	1
0	7612	70.392054460734	1
0	7624	70.545139302628	1
0	7633	70.60142182281	1
0	7644	70.682711658929	1
0	7651	70.754050087209	1
0	7653	70.771469603246	1
0	7662	70.848294937433	1
0	7664	70.863823495983	1
0	7676	70.978203033895	1
0	7696	71.083031944391	1
0	7698	71.11554903144	1
0	7709	71.19303326939	1
0	7717	71.206828592583	1
0	7725	71.246234349778	1
0	7737	71.296103583065	1
0	7746	71.312004784745	1
0	7757	71.6252877337	1
0	7764	71.642707605358	1
0	7766	71.663426123583	1
0	7768	71.677284805725	1
0	7789	71.911608798734	1
0	7799	71.998102609677	1
0	7809	72.076586311636	1
0	7813	72.086266058867	1
0	7823	72.147314343367	1
0	7838	72.388715986418	1
0	7849	72.60245815546	1
0	7856	72.611119854905	1
0	7858	72.672480275879	1
0	7877	72.833613475791	1
0	7889	72.962409673299	1
0	7909	73.172073300651	1
0	7920	73.222993549338	1
0	7928	73.232805501601	1
0	7940	73.467192465681	1
0	7951	73.522758356997	1
0	7965	73.639884726492	1
0	7969	73.703982081018	1
0	7987	73.824253459401	1
0	7991	73.911050457603	1
0	8001	73.950758552605	1
0	8012	74.076722669667	1
0	8024	74.218101002621	1
0	8033	74.220845212664	1
0	8044	74.321922128974	1
0	8058	74.453374338782	1
0	8062	74.480820690982	1
0	8080	74.62647671214	1
0	8082	74.643976216962	1
0	8084	74.644957660602	1
0	8096	74.804113272881	1
0	8107	74.840971566842	1
0	8121	75.160797064519	1
0	8128	75.18730637466	1
0	8130	75.248580919146	1
0	8141	75.318583482758	1
0	8151	75.407983623026	1
0	8182	75.715291145305	1
0	8202	75.91028883649	1
0	8211	75.991890692886	1
0	8222	76.052996449015	1
0	8230	76.063251638315	1
0	8244	76.366645895555	1
0	8251	76.463846984661	1
0	8262	76.549590494922	1
0	8282	76.748384440406	1
0	8303	76.920291371585	1
0	8310	76.937445234322	1
0	8327	77.176963213261	1
0	8340	77.665313112296	1
0	8356	77.834336607772	1
0	8358	77.843219846037	1
0	8360	77.860585502358	1
0	8370	77.870507655006	1
0	8382	77.969635605582	1
0	8392	78.07004072297	1
0	8396	78.120862668375	1
0	8424	78.419040634108	1
0	8426	78.425517203387	1
0	8443	78.701577648955	1
0	8450	78.756748010214	1
0	8459	78.816056169947	1
0	8461	78.845989008189	1
0	8473	78.976072750935	1
0	8493	79.165145666378	1
0	8506	79.300717517763	1
0	8515	79.304104703287	1
0	8517	79.340775218666	1
0	8532	79.660151405934	1
0	8541	79.672908763314	1
0	8552	79.716816461873	1
0	8559	79.775493342541	1
0	8568	79.819608823614	1
0	8570	79.869329752248	1
0	8572	79.870976080646	1
0	8584	79.946872558071	1
0	8586	79.967357784786	1
0	8606	80.154021831804	1
0	8608	80.205314530987	1
0	8621	80.282160788726	1
0	8643	80.547079614949	1
0	8652	80.661107502641	1
0	8661	80.671600777374	1
0	8672	80.76555097596	1
0	8696	81.056142936326	1
0	8706	81.06651001999	1
0	8727	81.270139438717	1
0	8737	81.27979356662	1
0	8744	81.340336944784	1
0	8746	81.346096236466	1
0	8759	81.385652796506	1
0	8767	81.394703543521	1
0	8775	81.421197037285	1
0	8783	81.448269476359	1
0	8795	81.543581730186	1
0	8806	81.726535945772	1
0	8813	81.729899337864	1
0	8815	81.803791339858	1
0	8817	81.805364252235	1
0	8826	81.877328742004	1
0	8838	81.933329579337	1
0	8848	82.03826379593	1
0	8850	82.045313990766	1
0	8854	82.123969899955	1
0	8864	82.152997241467	1
0	8866	82.156297639973	1
0	8868	82.181292721638	1
0	8879	82.268078908627	1
0	8889	82.2972735158	1
0	8907	82.444715738278	1
0	8915	82.458763309974	1
0	8927	82.505960118751	1
0	8936	82.507171043257	1
0	8945	82.574706630274	1
0	8954	82.586978131006	1
0	8967	82.986734478678	1
0	8976	83.083093748307	1
0	8985	83.111151340925	1
0	9013	83.477107552771	1
0	9025	83.523999685498	1
0	9058	83.988027685093	1
0	9067	83.992701175267	1
0	9076	84.045304254843	1
0	9087	84.082420426923	1
0	9094	84.100208102709	1
0	9103	84.278301570198	1
0	9115	84.380123328079	1
0	9135	84.544641670786	1
0	9146	84.612036015208	1
0	9158	84.714207849949	1
0	9171	85.168990235135	1
0	9178	85.214893027884	1
0	9180	85.221646443572	1
0	9182	85.259152637884	1
0	9201	85.412046524955	1
0	9221	85.573912631597	1
0	9223	85.607936353558	1
0	9225	85.615241519273	1
0	9227	85.642872038566	1
0	9239	85.757938297859	1
0	9249	85.866558628975	1
0	9262	85.914479898423	1
0	9269	85.942724569619	1
0	9282	86.043217900525	1
0	9294	86.152837156626	1
0	9305	86.414401249868	1
0	9314	86.487239007171	1
0	9331	86.679612864238	1
0	9343	86.734793076402	1
0	9345	86.803644465206	1
0	9357	86.884542434719	1
0	9367	86.940375113645	1
0	9369	86.974209725515	1
0	9384	87.147121689283	1
0	9393	87.269734910506	1
0	9404	87.403762506704	1
0	9411	87.457352386238	1
0	9422	87.516618128032	1
0	9424	87.561332118292	1
0	9462	87.908396626346	1
0	9475	88.084805365565	1
0	9484	88.129929245414	1
0	9499	88.388911859964	1
0	9508	88.439584181354	1
0	9517	88.44429410846	1
0	9528	88.578496082578	1
0	9535	88.604974309912	1
0	9537	88.664591499052	1
0	9548	88.70744225947	1
0	9576	88.984356707754	1
0	9589	89.15307853663	1
0	9598	89.182815889421	1
0	9615	89.606117469054	1
0	9622	89.654205291484	1
0	9651	90.001490862074	1
0	9671	90.120939856425	1
0	9686	90.356273333232	1
0	9697	90.583644049901	1
0	9704	90.618820788444	1
0	9706	90.631724638762	1
0	9753	91.114696663559	1
0	9755	91.142343935213	1
0	9757	91.171034844751	1
0	9768	91.196946070339	1
0	9776	91.208140524453	1
0	9784	91.275378814657	1
0	9798	91.576875641876	1
0	9822	91.798997060196	1
0	9824	91.825578715098	1
0	9826	91.869912154698	1
0	9846	91.986955727699	1
0	9848	92.035607641675	1
0	9850	92.041620478588	1
0	9867	92.290183587023	1
0	9881	92.421379895131	1
0	9883	92.433463034757	1
0	9903	92.646933274211	1
0	9915	92.746663166628	1
0	9917	92.778468621147	1
0	9928	92.792718915712	1
0	9936	92.840370497809	1
0	9946	92.887250066973	1
0	9955	92.934137882536	1
0	9957	92.973354011498	1
0	9972	93.111499919483	1
0	9981	93.225479460149	1
0	9990	93.252635039317	1
0	10001	93.411370762286	1
0	10008	93.430227234711	1
0	10012	93.500331785644	1
0	10021	93.559986777332	1
0	10023	93.595118905486	1
0	10033	93.631426789504	1
0	10053	93.848549377639	1
0	10074	94.031302004421	1
0	10082	94.074668489958	1
0	10092	94.101815486601	1
0	10110	94.23590565906	1
0	10122	94.305699413943	1
0	10131	94.386748728661	1
0	10142	94.672491263443	1
0	10151	94.694995512829	1
0	10160	94.795507077686	1
0	10170	94.875029297817	1
0	10190	95.076987748139	1
0	10194	95.150310282007	1
0	10217	95.432001455003	1
0	10226	95.47489263858	1
0	10237	95.613828489275	1
0	10244	95.616321298848	1
0	10255	95.736577033319	1
0	10257	95.752691291202	1
0	10287	96.096785695961	1
0	10289	96.110925007234	1
0	10314	96.629437949537	1
0	10330	96.75250983464	1
0	10332	96.812625299278	1
0	10352	96.936093286883	1
0	10354	96.943443924625	1
0	10364	97.03805409875	1
0	10366	97.072697431499	1
0	10378	97.184143254671	1
0	10380	97.200672555903	1
0	10391	97.260005612729	1
0	10401	97.314045882489	1
0	10419	97.433144027829	1
0	10427	97.447218543372	1
0	10437	97.494752510336	1
0	10446	97.587416370366	1
0	10457	97.597955983357	1
0	10465	97.646213504873	1
0	10479	97.968745113245	1
0	10503	98.194492792321	1
0	10505	98.202011973237	1
0	10536	98.545574312485	1
0	10543	98.54752324178	1
0	10547	98.62668415124	1
0	10564	99.015775160281	1
0	10571	99.047909190568	1
0	10573	99.063982194625	1
0	10584	99.153687496036	1
0	10586	99.18362279633	1
0	10606	99.41069380707	1
0	10616	99.434968350806	1
0	10620	99.487179481247	1
0	10630	99.57390868313	1
0	10641	99.654222360322	1
0	10655	100.026163191412	1
0	10662	100.057860929401	1
0	10666	100.089745034242	1
0	10675	100.150523510654	1
0	10705	100.501429865754	1
0	10715	100.55279842708	1
0	10717	100.555381231523	1
0	10719	100.583938123573	1
0	10734	100.802902795029	1
0	10743	100.873397727167	1
0	10754	100.996706599889	1
0	10761	101.033868175372	1
0	10763	101.066409847088	1
0	10774	101.113096281444	1
0	10794	101.338345568451	1
0	10804	101.412783394591	1
0	10806	101.415471456542	1
0	10818	101.554339183929	1
0	10829	101.652592018201	1
0	10839	101.693164652588	1
0	10848	101.733144179836	1
0	10863	101.991055492915	1
0	10876	102.332547983158	1
0	10892	102.530829241185	1
0	10902	102.549290828476	1
0	10904	102.554282388719	1
0	10924	102.786034994976	1
0	10926	102.815290055095	1
0	10936	102.855328208241	1
0	10940	102.914411730281	1
0	10963	103.134444662325	1
0	10972	103.145496249985	1
0	10981	103.217332833506	1
0	10990	103.260176936385	1
0	11001	103.331640355123	1
0	11015	103.466385237492	1
0	11019	103.515296078554	1
0	11029	103.629400411979	1
0	11041	103.704921593755	1
0	11051	103.802309452903	1
0	11068	104.091821214605	1
0	11082	104.215791022667	1
0	11102	104.439155007777	1
0	11104	104.462086724941	1
0	11116	104.575132444772	1
0	11127	104.616941610666	1
0	11139	104.718836928774	1
0	11148	104.831612972131	1
0	11159	104.911100255738	1
0	11183	105.122490937203	1
0	11185	105.154330238809	1
0	11195	105.232785908501	1
0	11197	105.248834319237	1
0	11201	105.282060381595	1
0	11220	105.476065202583	1
0	11228	105.479135379884	1
0	11240	105.579936733932	1
0	11251	105.70384038467	1
0	11258	105.739456962826	1
0	11260	105.740248497477	1
0	11262	105.801907806329	1
0	11271	105.848537508973	1
0	11273	105.851020829748	1
0	11285	105.926637454527	1
0	11295	106.008296723412	1
0	11316	106.263544372767	1
0	11328	106.308353169605	1
0	11337	106.317728708366	1
0	11346	106.387586808974	1
0	11355	106.439664695461	1
0	11364	106.456344271273	1
0	11373	106.45880563568	1
0	11384	106.514232483021	1
0	11391	106.556180415368	1
0	11410	106.792809441753	1
0	11422	106.890156696118	1
0	11424	106.891011497983	1
0	11434	106.923732536116	1
0	11449	107.270671919994	1
0	11460	107.294212506644	1
0	11474	107.411619520323	1
0	11476	107.423915777012	1
0	11478	107.434387004355	1
0	11490	107.520458475106	1
0	11492	107.554675944268	1
0	11502	107.673508860297	1
0	11514	107.75096053909	1
0	11525	107.86242163939	1
0	11537	107.991210663301	1
0	11550	108.288531497249	1
0	11557	108.337775634887	1
0	11559	108.338046322345	1
0	11561	108.363804808979	1
0	11570	108.467989255461	1
0	11582	108.528660496385	1
0	11592	108.620387676076	1
0	11622	108.97823784866	1
0	11633	109.067090719893	1
0	11645	109.246558031293	1
0	11658	109.575622914319	1
0	11682	109.82188734126	1
0	11684	109.823588903633	1
0	11696	109.933635756681	1
0	11706	110.052867334103	1
0	11718	110.110968199649	1
0	11737	110.278996439657	1
0	11749	110.394543912532	1
0	11758	110.465839560445	1
0	11769	110.570422089724	1
0	11776	110.611063376399	1
0	11778	110.614016557515	1
0	11794	110.770482212585	1
0	11817	111.02247108197	1
0	11819	111.032701260071	1
0	11832	111.110889702381	1
0	11839	111.169235719612	1
0	11858	111.641875239298	1
0	11867	111.715262236	1
0	11876	111.763567538426	1
0	11888	111.881970312061	1
0	11906	112.046305635582	1
0	11908	112.055834083869	1
0	11912	112.117639321583	1
0	11922	112.143485246455	1
0	11935	112.318830058283	1
0	11944	112.371644457355	1
0	11955	112.449105830991	1
0	11967	112.546735033288	1
0	11978	112.765006422217	1
0	12002	112.983008466933	1
0	12022	113.195123912618	1
0	12035	113.291573888794	1
0	12042	113.331368728259	1
0	12044	113.345693598638	1
0	12057	113.397516383448	1
0	12071	113.791662251911	1
0	12078	113.870330563457	1
0	12097	114.075735811843	1
0	12109	114.172940708691	1
0	12119	114.242801065386	1
0	12123	114.29050084048	1
0	12146	114.546052612146	1
0	12155	114.624169491145	1
0	12166	114.702122994028	1
0	12173	114.715010858632	1
0	12192	114.971804121502	1
0	12204	115.085965673854	1
0	12223	115.263101005786	1
0	12233	115.296945119068	1
0	12255	115.642046132004	1
0	12264	115.646438855417	1
0	12277	115.898740601552	1
0	12284	115.911081548703	1
0	12286	115.914751455731	1
0	12288	115.926004450369	1
0	12290	115.945214007984	1