version 3
run General-0-20250530-22:45:04-8814
attr configname General
attr datetime 20250530-22:45:04
attr datetimef 20250530-224504
attr experiment General
attr inifile omnetpp.ini
attr iterationvars ""
attr iterationvarsd ""
attr iterationvarsf ""
attr measurement ""
attr network Network
attr processid 8814
attr repetition 0
attr replication #0
attr resultdir results
attr runnumber 0
attr seedset 0
config network Network
config sim-time-limit 200s
config Network.node[0].app.interArrivalTime exponential(7)
config Network.node[0].app.packetByteSize 125000
config Network.node[0].app.destination 5
config Network.node[1].app.interArrivalTime exponential(7)
config Network.node[1].app.packetByteSize 125000
config Network.node[1].app.destination 5
config Network.node[2].app.interArrivalTime exponential(7)
config Network.node[2].app.packetByteSize 125000
config Network.node[2].app.destination 5
config Network.node[3].app.interArrivalTime exponential(7)
config Network.node[3].app.packetByteSize 125000
config Network.node[3].app.destination 5
config Network.node[4].app.interArrivalTime exponential(7)
config Network.node[4].app.packetByteSize 125000
config Network.node[4].app.destination 5
config Network.node[6].app.interArrivalTime exponential(7)
config Network.node[6].app.packetByteSize 125000
config Network.node[6].app.destination 5
config Network.node[7].app.interArrivalTime exponential(7)
config Network.node[7].app.packetByteSize 125000
config Network.node[7].app.destination 5

vector 0 Network.node[7].app SendedPackets ETV
vector 1 Network.node[7].net ResendedPackets ETV
vector 2 Network.node[7].lnk[0] "Buffer Size" ETV
vector 3 Network.node[6].app SendedPackets ETV
vector 4 Network.node[6].net ResendedPackets ETV
vector 5 Network.node[6].lnk[0] "Buffer Size" ETV
vector 6 Network.node[5].app Delay ETV
vector 7 Network.node[5].app Hops ETV
vector 8 Network.node[5].app ReceivedPackets ETV
vector 9 Network.node[0].app SendedPackets ETV
vector 10 Network.node[0].net ResendedPackets ETV
vector 11 Network.node[0].lnk[0] "Buffer Size" ETV
vector 12 Network.node[4].app SendedPackets ETV
vector 13 Network.node[4].net ResendedPackets ETV
vector 14 Network.node[4].lnk[0] "Buffer Size" ETV
vector 15 Network.node[3].net ResendedPackets ETV
vector 16 Network.node[3].lnk[0] "Buffer Size" ETV
vector 17 Network.node[2].net ResendedPackets ETV
vector 18 Network.node[2].lnk[0] "Buffer Size" ETV
vector 19 Network.node[1].net ResendedPackets ETV
vector 20 Network.node[1].lnk[0] "Buffer Size" ETV
vector 21 Network.node[1].app SendedPackets ETV
vector 22 Network.node[3].app SendedPackets ETV
vector 23 Network.node[2].app SendedPackets ETV
0	1	2.472113973963	1
0	211	18.036784928217	1
0	629	36.22456352916	1
0	787	47.522578053408	1
0	912	53.628826418703	1
0	1037	58.793617460994	1
0	1136	63.057194423276	1
0	1283	69.786860996736	1
0	1472	77.802833679636	1
0	1603	85.495220952493	1
0	1645	87.148667895072	1
0	1716	89.801401645051	1
0	1796	92.55318954618	1
0	2606	123.734667469412	1
0	2895	136.473399904403	1
0	2968	141.461485057736	1
0	3119	150.871201962802	1
0	3313	159.039316648642	1
0	3420	164.891999372434	1
0	3533	169.870734932954	1
0	3670	175.876004420474	1
0	3690	176.865319415399	1
0	3776	184.157783994655	1
0	3819	186.310408060992	1
0	3980	191.943989859602	1
0	4037	194.147041485584	1
0	4087	196.529468653231	1
0	4141	198.531615460787	1
1	2	2.472113973963	1
1	38	7.290022719388	1
1	66	9.518515705281	1
1	99	11.839544984754	1
1	142	14.064640143037	1
1	160	15.064640143037	1
1	178	16.064640143037	1
1	196	17.064640143037	1
1	212	18.036784928217	1
1	217	18.064640143037	1
1	247	19.333358936227	1
1	308	21.730326349967	1
1	338	22.730326349967	1
1	364	23.730326349967	1
1	424	25.222430413078	1
1	448	26.222430413078	1
1	474	27.222430413078	1
1	499	28.222430413078	1
1	521	29.222430413078	1
1	544	30.222430413078	1
1	565	31.222430413078	1
1	582	32.222430413078	1
1	595	33.222430413078	1
1	630	36.22456352916	1
1	668	38.446404427518	1
1	696	40.743365615666	1
1	727	42.938368636265	1
1	776	46.820963482617	1
1	788	47.522578053408	1
1	801	47.820963482617	1
1	826	48.820963482617	1
1	848	49.820963482617	1
1	865	50.820963482617	1
1	885	51.980042515097	1
1	913	53.628826418703	1
1	953	55.222447445624	1
1	976	56.222447445624	1
1	999	57.222447445624	1
1	1024	58.222447445624	1
1	1038	58.793617460994	1
1	1053	59.222447445624	1
1	1084	60.351919844358	1
1	1108	61.351919844358	1
1	1130	62.351919844358	1
1	1137	63.057194423276	1
1	1145	63.351919844358	1
1	1161	64.351919844358	1
1	1189	65.351919844358	1
1	1214	66.351919844358	1
1	1237	67.351919844358	1
1	1256	68.351919844358	1
1	1272	69.351919844358	1
1	1284	69.786860996736	1
1	1295	70.351919844358	1
1	1316	71.351919844358	1
1	1341	72.351919844358	1
1	1370	73.475382675992	1
1	1397	74.475382675992	1
1	1418	75.475382675992	1
1	1435	76.475382675992	1
1	1458	77.475382675992	1
1	1473	77.802833679636	1
1	1481	78.475382675992	1
1	1519	79.505117638723	1
1	1536	80.505117638723	1
1	1553	81.505117638723	1
1	1565	82.505117638723	1
1	1581	83.689351133312	1
1	1604	85.495220952493	1
1	1646	87.148667895072	1
1	1666	88.067134450766	1
1	1714	89.777776295491	1
1	1717	89.801401645051	1
1	1752	91.089758757616	1
1	1773	92.089758757616	1
1	1797	92.55318954618	1
1	1801	93.089758757616	1
1	1821	94.089758757616	1
1	1844	95.089758757616	1
1	1868	96.089758757616	1
1	1897	97.089758757616	1
1	1926	98.089758757616	1
1	1947	99.089758757616	1
1	1970	100.089758757616	1
1	1986	101.089758757616	1
1	2002	102.089758757616	1
1	2022	103.089758757616	1
1	2048	104.089758757616	1
1	2078	105.173349043596	1
1	2121	107.027070045865	1
1	2168	108.787973114507	1
1	2201	109.787973114507	1
1	2234	110.787973114507	1
1	2266	111.787973114507	1
1	2296	112.787973114507	1
1	2326	113.787973114507	1
1	2352	114.787973114507	1
1	2380	115.787973114507	1
1	2410	116.787973114507	1
1	2444	117.787973114507	1
1	2475	118.787973114507	1
1	2507	119.787973114507	1
1	2533	120.787973114507	1
1	2564	121.787973114507	1
1	2586	122.787973114507	1
1	2607	123.734667469412	1
1	2616	123.787973114507	1
1	2643	124.787973114507	1
1	2683	125.894432199603	1
1	2709	126.894432199603	1
1	2734	127.894432199603	1
1	2760	128.894432199603	1
1	2805	130.578195953439	1
1	2825	131.578195953439	1
1	2847	133.198939840474	1
1	2863	134.198939840474	1
1	2896	136.473399904403	1
1	2905	136.499956430657	1
1	2924	137.766735708926	1
1	2965	140.926312605428	1
1	2969	141.461485057736	1
1	3043	147.425662083738	1
1	3061	148.425662083738	1
1	3096	149.752533770484	1
1	3113	150.752533770484	1
1	3120	150.871201962802	1
1	3167	153.107163753331	1
1	3185	154.107163753331	1
1	3240	156.300557987013	1
1	3264	157.300557987013	1
1	3314	159.039316648642	1
1	3333	159.774032175479	1
1	3355	160.774032175479	1
1	3372	161.774032175479	1
1	3384	162.774032175479	1
1	3408	164.100226700454	1
1	3421	164.891999372434	1
1	3455	166.244886093101	1
1	3503	168.403789973786	1
1	3534	169.870734932954	1
1	3549	170.203208811883	1
1	3573	171.203208811883	1
1	3593	172.203208811883	1
1	3660	175.177179805937	1
1	3671	175.876004420474	1
1	3681	176.177179805937	1
1	3691	176.865319415399	1
1	3703	177.177179805937	1
1	3715	178.177179805937	1
1	3727	179.177179805937	1
1	3777	184.157783994655	1
1	3807	185.802866472624	1
1	3820	186.310408060992	1
1	3843	186.942447028767	1
1	3868	188.194445641807	1
1	3917	189.610898711778	1
1	3949	190.610898711778	1
1	3974	191.610898711778	1
1	3981	191.943989859602	1
1	4007	192.610898711778	1
1	4031	193.610898711778	1
1	4038	194.147041485584	1
1	4054	194.610898711778	1
1	4073	195.610898711778	1
1	4088	196.529468653231	1
1	4096	196.610898711778	1
1	4121	197.610898711778	1
1	4142	198.531615460787	1
1	4146	198.610898711778	1
1	4167	199.610898711778	1
2	3	2.472113973963	1
2	4	2.472113973963	0
2	39	7.290022719388	1
2	40	7.290022719388	0
2	67	9.518515705281	1
2	68	9.518515705281	0
2	100	11.839544984754	1
2	101	11.839544984754	0
2	143	14.064640143037	1
2	144	14.064640143037	0
2	161	15.064640143037	1
2	162	15.064640143037	0
2	179	16.064640143037	1
2	180	16.064640143037	0
2	197	17.064640143037	1
2	198	17.064640143037	0
2	213	18.036784928217	1
2	216	18.064640143037	0
2	218	18.064640143037	1
2	236	19.064640143037	0
2	248	19.333358936227	1
2	260	20.064640143037	0
2	309	21.730326349967	1
2	310	21.730326349967	0
2	339	22.730326349967	1
2	340	22.730326349967	0
2	365	23.730326349967	1
2	366	23.730326349967	0
2	425	25.222430413078	1
2	426	25.222430413078	0
2	449	26.222430413078	1
2	450	26.222430413078	0
2	475	27.222430413078	1
2	476	27.222430413078	0
2	500	28.222430413078	1
2	501	28.222430413078	0
2	522	29.222430413078	1
2	523	29.222430413078	0
2	545	30.222430413078	1
2	546	30.222430413078	0
2	566	31.222430413078	1
2	567	31.222430413078	0
2	583	32.222430413078	1
2	584	32.222430413078	0
2	596	33.222430413078	1
2	597	33.222430413078	0
2	631	36.22456352916	1
2	632	36.22456352916	0
2	669	38.446404427518	1
2	670	38.446404427518	0
2	697	40.743365615666	1
2	698	40.743365615666	0
2	728	42.938368636265	1
2	729	42.938368636265	0
2	777	46.820963482617	1
2	778	46.820963482617	0
2	789	47.522578053408	1
2	800	47.820963482617	0
2	802	47.820963482617	1
2	825	48.820963482617	0
2	827	48.820963482617	1
2	847	49.820963482617	0
2	849	49.820963482617	1
2	864	50.820963482617	0
2	866	50.820963482617	1
2	879	51.820963482617	0
2	886	51.980042515097	1
2	895	52.820963482617	0
2	914	53.628826418703	1
2	915	53.820963482617	0
2	954	55.222447445624	1
2	955	55.222447445624	0
2	977	56.222447445624	1
2	978	56.222447445624	0
2	1000	57.222447445624	1
2	1001	57.222447445624	0
2	1025	58.222447445624	1
2	1026	58.222447445624	0
2	1039	58.793617460994	1
2	1052	59.222447445624	0
2	1054	59.222447445624	1
2	1078	60.222447445624	0
2	1085	60.351919844358	1
2	1102	61.222447445624	0
2	1109	61.351919844358	1
2	1124	62.222447445624	0
2	1131	62.351919844358	1
2	1138	63.057194423276	2
2	1139	63.222447445624	1
2	1146	63.351919844358	2
2	1155	64.222447445624	1
2	1162	64.351919844358	2
2	1179	65.222447445624	1
2	1190	65.351919844358	2
2	1204	66.222447445624	1
2	1215	66.351919844358	2
2	1227	67.222447445624	1
2	1238	67.351919844358	2
2	1246	68.222447445624	1
2	1257	68.351919844358	2
2	1266	69.222447445624	1
2	1273	69.351919844358	2
2	1285	69.786860996736	3
2	1289	70.222447445624	2
2	1296	70.351919844358	3
2	1310	71.222447445624	2
2	1317	71.351919844358	3
2	1335	72.222447445624	2
2	1342	72.351919844358	3
2	1359	73.222447445624	2
2	1371	73.475382675992	3
2	1380	74.222447445624	2
2	1398	74.475382675992	3
2	1403	75.222447445624	2
2	1419	75.475382675992	3
2	1424	76.222447445624	2
2	1436	76.475382675992	3
2	1445	77.222447445624	2
2	1459	77.475382675992	3
2	1474	77.802833679636	4
2	1475	78.222447445624	3
2	1482	78.475382675992	4
2	1500	79.222447445624	3
2	1520	79.505117638723	4
2	1521	80.222447445624	3
2	1537	80.505117638723	4
2	1538	81.222447445624	3
2	1554	81.505117638723	4
2	1555	82.222447445624	3
2	1566	82.505117638723	4
2	1571	83.222447445624	3
2	1582	83.689351133312	4
2	1583	84.222447445624	3
2	1595	85.222447445624	2
2	1605	85.495220952493	3
2	1619	86.222447445624	2
2	1647	87.148667895072	3
2	1648	87.222447445624	2
2	1667	88.067134450766	3
2	1678	88.222447445624	2
2	1704	89.222447445624	1
2	1715	89.777776295491	2
2	1718	89.801401645051	3
2	1728	90.222447445624	2
2	1753	91.089758757616	3
2	1754	91.222447445624	2
2	1774	92.089758757616	3
2	1775	92.222447445624	2
2	1798	92.55318954618	3
2	1802	93.089758757616	4
2	1803	93.222447445624	3
2	1822	94.089758757616	4
2	1823	94.222447445624	3
2	1845	95.089758757616	4
2	1846	95.222447445624	3
2	1869	96.089758757616	4
2	1870	96.222447445624	3
2	1898	97.089758757616	4
2	1899	97.222447445624	3
2	1927	98.089758757616	4
2	1928	98.222447445624	3
2	1948	99.089758757616	4
2	1949	99.222447445624	3
2	1971	100.089758757616	4
2	1972	100.222447445624	3
2	1987	101.089758757616	4
2	1988	101.222447445624	3
2	2003	102.089758757616	4
2	2008	102.222447445624	3
2	2023	103.089758757616	4
2	2029	103.222447445624	3
2	2049	104.089758757616	4
2	2055	104.222447445624	3
2	2079	105.173349043596	4
2	2080	105.222447445624	3
2	2098	106.222447445624	2
2	2122	107.027070045865	3
2	2123	107.222447445624	2
2	2144	108.222447445624	1
2	2169	108.787973114507	2
2	2170	109.222447445624	1
2	2202	109.787973114507	2
2	2203	110.222447445624	1
2	2235	110.787973114507	2
2	2236	111.222447445624	1
2	2267	111.787973114507	2
2	2268	112.222447445624	1
2	2297	112.787973114507	2
2	2298	113.222447445624	1
2	2327	113.787973114507	2
2	2328	114.222447445624	1
2	2353	114.787973114507	2
2	2361	115.222447445624	1
2	2381	115.787973114507	2
2	2391	116.222447445624	1
2	2411	116.787973114507	2
2	2425	117.222447445624	1
2	2445	117.787973114507	2
2	2455	118.222447445624	1
2	2476	118.787973114507	2
2	2487	119.222447445624	1
2	2508	119.787973114507	2
2	2509	120.222447445624	1
2	2534	120.787973114507	2
2	2542	121.222447445624	1
2	2565	121.787973114507	2
2	2571	122.222447445624	1
2	2587	122.787973114507	2
2	2598	123.222447445624	1
2	2608	123.734667469412	2
2	2617	123.787973114507	3
2	2633	124.222447445624	2
2	2644	124.787973114507	3
2	2660	125.222447445624	2
2	2684	125.894432199603	3
2	2685	126.222447445624	2
2	2710	126.894432199603	3
2	2711	127.222447445624	2
2	2735	127.894432199603	3
2	2736	128.222447445624	2
2	2761	128.894432199603	3
2	2762	129.222447445624	2
2	2785	130.222447445624	1
2	2806	130.578195953439	2
2	2811	131.222447445624	1
2	2826	131.578195953439	2
2	2832	132.222447445624	1
2	2848	133.198939840474	2
2	2849	133.222447445624	1
2	2864	134.198939840474	2
2	2865	134.222447445624	1
2	2878	135.222447445624	0
2	2897	136.473399904403	1
2	2898	136.473399904403	0
2	2906	136.499956430657	1
2	2911	137.473399904403	0
2	2925	137.766735708926	1
2	2933	138.473399904403	0
2	2966	140.926312605428	1
2	2967	140.926312605428	0
2	2970	141.461485057736	1
2	2975	141.926312605428	0
2	3044	147.425662083738	1
2	3045	147.425662083738	0
2	3062	148.425662083738	1
2	3063	148.425662083738	0
2	3097	149.752533770484	1
2	3098	149.752533770484	0
2	3114	150.752533770484	1
2	3115	150.752533770484	0
2	3121	150.871201962802	1
2	3134	151.752533770484	0
2	3168	153.107163753331	1
2	3169	153.107163753331	0
2	3186	154.107163753331	1
2	3187	154.107163753331	0
2	3241	156.300557987013	1
2	3242	156.300557987013	0
2	3265	157.300557987013	1
2	3266	157.300557987013	0
2	3315	159.039316648642	1
2	3316	159.039316648642	0
2	3334	159.774032175479	1
2	3335	160.039316648642	0
2	3356	160.774032175479	1
2	3357	161.039316648642	0
2	3373	161.774032175479	1
2	3374	162.039316648642	0
2	3385	162.774032175479	1
2	3386	163.039316648642	0
2	3409	164.100226700454	1
2	3410	164.100226700454	0
2	3422	164.891999372434	1
2	3423	165.100226700454	0
2	3456	166.244886093101	1
2	3457	166.244886093101	0
2	3504	168.403789973786	1
2	3505	168.403789973786	0
2	3535	169.870734932954	1
2	3536	169.870734932954	0
2	3550	170.203208811883	1
2	3559	170.870734932954	0
2	3574	171.203208811883	1
2	3584	171.870734932954	0
2	3594	172.203208811883	1
2	3609	172.870734932954	0
2	3661	175.177179805937	1
2	3662	175.177179805937	0
2	3672	175.876004420474	1
2	3680	176.177179805937	0
2	3682	176.177179805937	1
2	3692	176.865319415399	2
2	3702	177.177179805937	1
2	3704	177.177179805937	2
2	3714	178.177179805937	1
2	3716	178.177179805937	2
2	3726	179.177179805937	1
2	3728	179.177179805937	2
2	3736	180.177179805937	1
2	3744	181.177179805937	0
2	3778	184.157783994655	1
2	3779	184.157783994655	0
2	3808	185.802866472624	1
2	3809	185.802866472624	0
2	3821	186.310408060992	1
2	3837	186.802866472624	0
2	3844	186.942447028767	1
2	3859	187.802866472624	0
2	3869	188.194445641807	1
2	3887	188.802866472624	0
2	3918	189.610898711778	1
2	3919	189.802866472624	0
2	3950	190.610898711778	1
2	3951	190.802866472624	0
2	3975	191.610898711778	1
2	3976	191.802866472624	0
2	3982	191.943989859602	1
2	4008	192.610898711778	2
2	4009	192.802866472624	1
2	4032	193.610898711778	2
2	4033	193.802866472624	1
2	4039	194.147041485584	2
2	4055	194.610898711778	3
2	4056	194.802866472624	2
2	4074	195.610898711778	3
2	4075	195.802866472624	2
2	4089	196.529468653231	3
2	4097	196.610898711778	4
2	4098	196.802866472624	3
2	4122	197.610898711778	4
2	4123	197.802866472624	3
2	4143	198.531615460787	4
2	4147	198.610898711778	5
2	4148	198.802866472624	4
2	4168	199.610898711778	5
2	4169	199.802866472624	4
3	5	3.395897146052	1
3	13	3.804589829704	1
3	455	27.008975789202	1
3	484	28.067591764857	1
3	714	42.34979157045	1
3	783	47.494542518779	1
3	936	54.644565639223	1
3	1030	58.393525680818	1
3	1243	67.740556973185	1
3	1661	87.885962122129	1
3	1831	94.438393040529	1
3	2412	116.789019534904	1
3	2919	137.699348777868	1
3	2930	138.100637262834	1
3	2979	142.300265469321	1
3	2982	142.441596366344	1
3	2989	142.721430459752	1
3	3033	146.801579181821	1
3	3099	149.919515415259	1
3	3200	154.509039405804	1
3	3588	172.0364218874	1
3	3639	174.313804796103	1
3	3642	174.379610050752	1
3	3752	182.085531421388	1
3	4060	194.974508721797	1
4	6	3.395897146052	1
4	11	3.472213973963	1
4	14	3.804589829704	1
4	48	8.290122719388	1
4	80	10.518615705281	1
4	109	12.839644984754	1
4	164	15.064740143037	1
4	183	16.064740143037	1
4	201	17.064740143037	1
4	221	18.064740143037	1
4	239	19.064740143037	1
4	263	20.064740143037	1
4	282	21.064740143037	1
4	342	22.730426349967	1
4	369	23.730426349967	1
4	399	24.730426349967	1
4	452	26.222530413078	1
4	456	27.008975789202	1
4	479	27.222530413078	1
4	485	28.067591764857	1
4	504	28.222530413078	1
4	526	29.222530413078	1
4	549	30.222530413078	1
4	570	31.222530413078	1
4	587	32.222530413078	1
4	600	33.222530413078	1
4	608	34.222530413078	1
4	649	37.22466352916	1
4	678	39.446504427518	1
4	706	41.743465615666	1
4	715	42.34979157045	1
4	741	43.938468636265	1
4	784	47.494542518779	1
4	804	47.821063482617	1
4	829	48.821063482617	1
4	851	49.821063482617	1
4	868	50.821063482617	1
4	881	51.821063482617	1
4	897	52.821063482617	1
4	917	53.821063482617	1
4	937	54.644565639223	1
4	941	54.821063482617	1
4	980	56.222547445624	1
4	1003	57.222547445624	1
4	1028	58.222547445624	1
4	1031	58.393525680818	1
4	1056	59.222547445624	1
4	1080	60.222547445624	1
4	1104	61.222547445624	1
4	1126	62.222547445624	1
4	1141	63.222547445624	1
4	1157	64.222547445624	1
4	1181	65.222547445624	1
4	1206	66.222547445624	1
4	1229	67.222547445624	1
4	1244	67.740556973185	1
4	1248	68.222547445624	1
4	1268	69.222547445624	1
4	1291	70.222547445624	1
4	1312	71.222547445624	1
4	1337	72.222547445624	1
4	1361	73.222547445624	1
4	1382	74.222547445624	1
4	1405	75.222547445624	1
4	1426	76.222547445624	1
4	1447	77.222547445624	1
4	1477	78.222547445624	1
4	1502	79.222547445624	1
4	1523	80.222547445624	1
4	1540	81.222547445624	1
4	1557	82.222547445624	1
4	1573	83.222547445624	1
4	1585	84.222547445624	1
4	1597	85.222547445624	1
4	1621	86.222547445624	1
4	1650	87.222547445624	1
4	1662	87.885962122129	1
4	1680	88.222547445624	1
4	1706	89.222547445624	1
4	1730	90.222547445624	1
4	1756	91.222547445624	1
4	1777	92.222547445624	1
4	1805	93.222547445624	1
4	1825	94.222547445624	1
4	1832	94.438393040529	1
4	1848	95.222547445624	1
4	1872	96.222547445624	1
4	1901	97.222547445624	1
4	1930	98.222547445624	1
4	1951	99.222547445624	1
4	1974	100.222547445624	1
4	1990	101.222547445624	1
4	2010	102.222547445624	1
4	2031	103.222547445624	1
4	2057	104.222547445624	1
4	2082	105.222547445624	1
4	2100	106.222547445624	1
4	2125	107.222547445624	1
4	2146	108.222547445624	1
4	2172	109.222547445624	1
4	2205	110.222547445624	1
4	2238	111.222547445624	1
4	2270	112.222547445624	1
4	2300	113.222547445624	1
4	2330	114.222547445624	1
4	2363	115.222547445624	1
4	2393	116.222547445624	1
4	2413	116.789019534904	1
4	2427	117.222547445624	1
4	2457	118.222547445624	1
4	2489	119.222547445624	1
4	2511	120.222547445624	1
4	2544	121.222547445624	1
4	2573	122.222547445624	1
4	2600	123.222547445624	1
4	2635	124.222547445624	1
4	2662	125.222547445624	1
4	2687	126.222547445624	1
4	2713	127.222547445624	1
4	2738	128.222547445624	1
4	2764	129.222547445624	1
4	2787	130.222547445624	1
4	2813	131.222547445624	1
4	2834	132.222547445624	1
4	2851	133.222547445624	1
4	2867	134.222547445624	1
4	2880	135.222547445624	1
4	2893	136.222547445624	1
4	2913	137.473499904403	1
4	2920	137.699348777868	1
4	2931	138.100637262834	1
4	2935	138.473499904403	1
4	2948	139.473499904403	1
4	2977	141.926412605428	1
4	2980	142.300265469321	1
4	2983	142.441596366344	1
4	2990	142.721430459752	1
4	2994	142.926412605428	1
4	3034	146.801579181821	1
4	3065	148.425762083738	1
4	3083	149.425762083738	1
4	3100	149.919515415259	1
4	3117	150.752633770484	1
4	3136	151.752633770484	1
4	3158	152.752633770484	1
4	3189	154.107263753331	1
4	3201	154.509039405804	1
4	3209	155.107263753331	1
4	3268	157.300657987013	1
4	3293	158.300657987013	1
4	3337	160.039416648642	1
4	3359	161.039416648642	1
4	3376	162.039416648642	1
4	3388	163.039416648642	1
4	3404	164.039416648642	1
4	3425	165.100326700454	1
4	3446	166.100326700454	1
4	3477	167.244986093101	1
4	3527	169.403889973786	1
4	3561	170.870834932954	1
4	3586	171.870834932954	1
4	3589	172.0364218874	1
4	3611	172.870834932954	1
4	3632	173.870834932954	1
4	3640	174.313804796103	1
4	3643	174.379610050752	1
4	3684	176.177279805937	1
4	3706	177.177279805937	1
4	3718	178.177279805937	1
4	3730	179.177279805937	1
4	3738	180.177279805937	1
4	3746	181.177279805937	1
4	3753	182.085531421388	1
4	3757	182.177279805937	1
4	3791	185.157883994655	1
4	3839	186.802966472624	1
4	3861	187.802966472624	1
4	3889	188.802966472624	1
4	3921	189.802966472624	1
4	3953	190.802966472624	1
4	3978	191.802966472624	1
4	4011	192.802966472624	1
4	4035	193.802966472624	1
4	4058	194.802966472624	1
4	4061	194.974508721797	1
4	4077	195.802966472624	1
4	4100	196.802966472624	1
4	4125	197.802966472624	1
4	4150	198.802966472624	1
4	4171	199.802966472624	1
5	7	3.395897146052	1
5	8	3.395897146052	0
5	12	3.472213973963	1
5	15	3.804589829704	2
5	16	4.395897146052	1
5	20	5.395897146052	0
5	49	8.290122719388	1
5	50	8.290122719388	0
5	81	10.518615705281	1
5	82	10.518615705281	0
5	110	12.839644984754	1
5	111	12.839644984754	0
5	165	15.064740143037	1
5	166	15.064740143037	0
5	184	16.064740143037	1
5	185	16.064740143037	0
5	202	17.064740143037	1
5	203	17.064740143037	0
5	222	18.064740143037	1
5	223	18.064740143037	0
5	240	19.064740143037	1
5	241	19.064740143037	0
5	264	20.064740143037	1
5	265	20.064740143037	0
5	283	21.064740143037	1
5	284	21.064740143037	0
5	343	22.730426349967	1
5	344	22.730426349967	0
5	370	23.730426349967	1
5	371	23.730426349967	0
5	400	24.730426349967	1
5	401	24.730426349967	0
5	453	26.222530413078	1
5	454	26.222530413078	0
5	457	27.008975789202	1
5	478	27.222530413078	0
5	480	27.222530413078	1
5	486	28.067591764857	2
5	503	28.222530413078	1
5	505	28.222530413078	2
5	525	29.222530413078	1
5	527	29.222530413078	2
5	548	30.222530413078	1
5	550	30.222530413078	2
5	569	31.222530413078	1
5	571	31.222530413078	2
5	586	32.222530413078	1
5	588	32.222530413078	2
5	599	33.222530413078	1
5	601	33.222530413078	2
5	607	34.222530413078	1
5	609	34.222530413078	2
5	613	35.222530413078	1
5	625	36.222530413078	0
5	650	37.22466352916	1
5	651	37.22466352916	0
5	679	39.446504427518	1
5	680	39.446504427518	0
5	707	41.743465615666	1
5	708	41.743465615666	0
5	716	42.34979157045	1
5	717	42.743465615666	0
5	742	43.938468636265	1
5	743	43.938468636265	0
5	785	47.494542518779	1
5	786	47.494542518779	0
5	805	47.821063482617	1
5	811	48.494542518779	0
5	830	48.821063482617	1
5	836	49.494542518779	0
5	852	49.821063482617	1
5	858	50.494542518779	0
5	869	50.821063482617	1
5	875	51.494542518779	0
5	882	51.821063482617	1
5	891	52.494542518779	0
5	898	52.821063482617	1
5	908	53.494542518779	0
5	918	53.821063482617	1
5	932	54.494542518779	0
5	938	54.644565639223	1
5	942	54.821063482617	2
5	960	55.494542518779	1
5	981	56.222547445624	2
5	982	56.494542518779	1
5	1004	57.222547445624	2
5	1005	57.494542518779	1
5	1029	58.222547445624	2
5	1032	58.393525680818	3
5	1033	58.494542518779	2
5	1057	59.222547445624	3
5	1065	59.494542518779	2
5	1081	60.222547445624	3
5	1086	60.494542518779	2
5	1105	61.222547445624	3
5	1110	61.494542518779	2
5	1127	62.222547445624	3
5	1132	62.494542518779	2
5	1142	63.222547445624	3
5	1151	63.494542518779	2
5	1158	64.222547445624	3
5	1168	64.494542518779	2
5	1182	65.222547445624	3
5	1195	65.494542518779	2
5	1207	66.222547445624	3
5	1216	66.494542518779	2
5	1230	67.222547445624	3
5	1239	67.494542518779	2
5	1245	67.740556973185	3
5	1249	68.222547445624	4
5	1262	68.494542518779	3
5	1269	69.222547445624	4
5	1279	69.494542518779	3
5	1292	70.222547445624	4
5	1302	70.494542518779	3
5	1313	71.222547445624	4
5	1323	71.494542518779	3
5	1338	72.222547445624	4
5	1351	72.494542518779	3
5	1362	73.222547445624	4
5	1372	73.494542518779	3
5	1383	74.222547445624	4
5	1399	74.494542518779	3
5	1406	75.222547445624	4
5	1420	75.494542518779	3
5	1427	76.222547445624	4
5	1437	76.494542518779	3
5	1448	77.222547445624	4
5	1460	77.494542518779	3
5	1478	78.222547445624	4
5	1483	78.494542518779	3
5	1503	79.222547445624	4
5	1504	79.494542518779	3
5	1524	80.222547445624	4
5	1525	80.494542518779	3
5	1541	81.222547445624	4
5	1542	81.494542518779	3
5	1558	82.222547445624	4
5	1559	82.494542518779	3
5	1574	83.222547445624	4
5	1575	83.494542518779	3
5	1586	84.222547445624	4
5	1587	84.494542518779	3
5	1598	85.222547445624	4
5	1599	85.494542518779	3
5	1622	86.222547445624	4
5	1623	86.494542518779	3
5	1651	87.222547445624	4
5	1652	87.494542518779	3
5	1663	87.885962122129	4
5	1681	88.222547445624	5
5	1682	88.494542518779	4
5	1707	89.222547445624	5
5	1708	89.494542518779	4
5	1731	90.222547445624	5
5	1735	90.494542518779	4
5	1757	91.222547445624	5
5	1758	91.494542518779	4
5	1778	92.222547445624	5
5	1783	92.494542518779	4
5	1806	93.222547445624	5
5	1811	93.494542518779	4
5	1826	94.222547445624	5
5	1833	94.438393040529	6
5	1834	94.494542518779	5
5	1849	95.222547445624	6
5	1854	95.494542518779	5
5	1873	96.222547445624	6
5	1877	96.494542518779	5
5	1902	97.222547445624	6
5	1903	97.494542518779	5
5	1931	98.222547445624	6
5	1932	98.494542518779	5
5	1952	99.222547445624	6
5	1960	99.494542518779	5
5	1975	100.222547445624	6
5	1980	100.494542518779	5
5	1991	101.222547445624	6
5	1996	101.494542518779	5
5	2011	102.222547445624	6
5	2012	102.494542518779	5
5	2032	103.222547445624	6
5	2033	103.494542518779	5
5	2058	104.222547445624	6
5	2059	104.494542518779	5
5	2083	105.222547445624	6
5	2084	105.494542518779	5
5	2101	106.222547445624	6
5	2102	106.494542518779	5
5	2126	107.222547445624	6
5	2127	107.494542518779	5
5	2147	108.222547445624	6
5	2152	108.494542518779	5
5	2173	109.222547445624	6
5	2181	109.494542518779	5
5	2206	110.222547445624	6
5	2207	110.494542518779	5
5	2239	111.222547445624	6
5	2243	111.494542518779	5
5	2271	112.222547445624	6
5	2276	112.494542518779	5
5	2301	113.222547445624	6
5	2306	113.494542518779	5
5	2331	114.222547445624	6
5	2332	114.494542518779	5
5	2364	115.222547445624	6
5	2365	115.494542518779	5
5	2394	116.222547445624	6
5	2395	116.494542518779	5
5	2414	116.789019534904	6
5	2428	117.222547445624	7
5	2429	117.494542518779	6
5	2458	118.222547445624	7
5	2459	118.494542518779	6
5	2490	119.222547445624	7
5	2491	119.494542518779	6
5	2512	120.222547445624	7
5	2513	120.494542518779	6
5	2545	121.222547445624	7
5	2546	121.494542518779	6
5	2574	122.222547445624	7
5	2575	122.494542518779	6
5	2601	123.222547445624	7
5	2602	123.494542518779	6
5	2636	124.222547445624	7
5	2637	124.494542518779	6
5	2663	125.222547445624	7
5	2664	125.494542518779	6
5	2688	126.222547445624	7
5	2689	126.494542518779	6
5	2714	127.222547445624	7
5	2718	127.494542518779	6
5	2739	128.222547445624	7
5	2740	128.494542518779	6
5	2765	129.222547445624	7
5	2766	129.494542518779	6
5	2788	130.222547445624	7
5	2789	130.494542518779	6
5	2814	131.222547445624	7
5	2815	131.494542518779	6
5	2835	132.222547445624	7
5	2836	132.494542518779	6
5	2852	133.222547445624	7
5	2853	133.494542518779	6
5	2868	134.222547445624	7
5	2869	134.494542518779	6
5	2881	135.222547445624	7
5	2882	135.494542518779	6
5	2894	136.222547445624	7
5	2899	136.494542518779	6
5	2914	137.473499904403	7
5	2915	137.494542518779	6
5	2921	137.699348777868	7
5	2932	138.100637262834	8
5	2936	138.473499904403	9
5	2937	138.494542518779	8
5	2949	139.473499904403	9
5	2950	139.494542518779	8
5	2959	140.494542518779	7
5	2971	141.494542518779	6
5	2978	141.926412605428	7
5	2981	142.300265469321	8
5	2984	142.441596366344	9
5	2985	142.494542518779	8
5	2991	142.721430459752	9
5	2995	142.926412605428	10
5	2996	143.494542518779	9
5	3004	144.494542518779	8
5	3013	145.494542518779	7
5	3025	146.494542518779	6
5	3035	146.801579181821	7
5	3046	147.494542518779	6
5	3066	148.425762083738	7
5	3067	148.494542518779	6
5	3084	149.425762083738	7
5	3085	149.494542518779	6
5	3101	149.919515415259	7
5	3106	150.494542518779	6
5	3118	150.752633770484	7
5	3130	151.494542518779	6
5	3137	151.752633770484	7
5	3152	152.494542518779	6
5	3159	152.752633770484	7
5	3175	153.494542518779	6
5	3190	154.107263753331	7
5	3196	154.494542518779	6
5	3202	154.509039405804	7
5	3210	155.107263753331	8
5	3224	155.494542518779	7
5	3243	156.494542518779	6
5	3269	157.300657987013	7
5	3273	157.494542518779	6
5	3294	158.300657987013	7
5	3295	158.494542518779	6
5	3317	159.494542518779	5
5	3338	160.039416648642	6
5	3339	160.494542518779	5
5	3360	161.039416648642	6
5	3361	161.494542518779	5
5	3377	162.039416648642	6
5	3378	162.494542518779	5
5	3389	163.039416648642	6
5	3398	163.494542518779	5
5	3405	164.039416648642	6
5	3416	164.494542518779	5
5	3426	165.100326700454	6
5	3440	165.494542518779	5
5	3447	166.100326700454	6
5	3463	166.494542518779	5
5	3478	167.244986093101	6
5	3484	167.494542518779	5
5	3506	168.494542518779	4
5	3528	169.403889973786	5
5	3529	169.494542518779	4
5	3555	170.494542518779	3
5	3562	170.870834932954	4
5	3580	171.494542518779	3
5	3587	171.870834932954	4
5	3590	172.0364218874	5
5	3605	172.494542518779	4
5	3612	172.870834932954	5
5	3626	173.494542518779	4
5	3633	173.870834932954	5
5	3641	174.313804796103	6
5	3644	174.379610050752	7
5	3649	174.494542518779	6
5	3663	175.494542518779	5
5	3685	176.177279805937	6
5	3686	176.494542518779	5
5	3707	177.177279805937	6
5	3708	177.494542518779	5
5	3719	178.177279805937	6
5	3720	178.494542518779	5
5	3731	179.177279805937	6
5	3732	179.494542518779	5